 Gaussian 09, Revision C.01,
 Gaussian 09:  EM64L-G09RevC.01 23-Sep-2011

 --------------------------------------
 #SP PBE1PBE/Def2TZVP geom=connectivity
 --------------------------------------

 99/5=1,9=1/99;
 ------------
 Structure: 0
 ------------
 Charge =  0 Multiplicity = 1

                         Standard orientation:
 ---------------------------------------------------------------------
 Center     Atomic      Atomic             Coordinates (Angstroms)
 Number     Number       Type             X           Y           Z
 ---------------------------------------------------------------------
      1          1           0       -3.231512   -1.196894   -0.373758
      2          6           0       -2.145811   -1.096923   -0.296898
      3          6           0       -1.742966    0.291116    0.199236
      4          1           0       -1.737158   -1.305395   -1.290304
      5          1           0       -1.788452   -1.878231    0.378425
      6          1           0       -2.115124    1.063476   -0.482938
      7         14           0        0.091061    0.538036    0.393148
      8          1           0       -2.205964    0.494379    1.170722
      9          8           0        0.657992    1.833406   -0.454772
     10          8           0        0.784818   -0.865747   -0.100699
     11          1           0        0.494866    0.840118    1.790494
     12          1           0        0.459343    1.869151   -1.392577
     13          6           0        2.168771   -1.120481   -0.035469
     14          1           0        2.345662   -2.148544   -0.357964
     15          1           0        2.549127   -1.007505    0.986299
     16          1           0        2.731915   -0.446593   -0.689911
 ---------------------------------------------------------------------

 SCF Done:  E(RPBE1PBE) =  -560.058605193     A.U. after   12 cycles

 The electronic state is 1-A.
 Alpha  occ. eigenvalues --  -66.25378 -19.20218 -19.20063 -10.26484 -10.21005
 Alpha  occ. eigenvalues --  -10.20753  -5.33048  -3.66578  -3.66460  -3.66316
 Alpha  occ. eigenvalues --   -1.04473  -1.02269  -0.77854  -0.70455  -0.63738
 Alpha  occ. eigenvalues --   -0.56664  -0.51213  -0.47030  -0.46820  -0.45502
 Alpha  occ. eigenvalues --   -0.42523  -0.40867  -0.39032  -0.37826  -0.36051
 Alpha  occ. eigenvalues --   -0.34978  -0.31705  -0.30602  -0.29586
 Alpha virt. eigenvalues --    0.02997   0.04307   0.05706   0.08227   0.08755
 Alpha virt. eigenvalues --    0.10525   0.11025   0.11540   0.12660   0.13133
 Alpha virt. eigenvalues --    0.14056   0.14660   0.15212   0.18412   0.19568

 Mulliken atomic charges:
              1
     1  H    0.120383
     2  C   -0.340157
     3  C   -0.356003
     4  H    0.118452
     5  H    0.122574
     6  H    0.114756
     7  Si   0.551897
     8  H    0.124492
     9  O   -0.528353
    10  O   -0.327339
    11  H   -0.066259
    12  H    0.317682
    13  C   -0.217982
    14  H    0.127860
    15  H    0.118239
    16  H    0.119761
 Sum of Mulliken atomic charges =   0.00000

 Dipole moment (field-independent basis, Debye):
    X=             -0.1548    Y=             -0.4099    Z=             -1.0319  Tot=              1.1211
 Quadrupole moment (field-independent basis, Debye-Ang):
   XX=            -42.7797   YY=            -48.2380   ZZ=            -42.4496
   XY=             -3.2977   XZ=             -0.6401   YZ=             -2.9120

 Normal termination of Gaussian 09 at Fri Jun 29 10:26:01 2018.
