 Gaussian 09, Revision C.01,
 Gaussian 09:  EM64L-G09RevC.01 23-Sep-2011

 --------------------------------------
 #SP PBE1PBE/Def2TZVP geom=connectivity
 --------------------------------------

 99/5=1,9=1/99;
 -------------
 Structure: 13
 -------------
 Charge =  0 Multiplicity = 1

                         Standard orientation:
 ---------------------------------------------------------------------
 Center     Atomic      Atomic             Coordinates (Angstroms)
 Number     Number       Type             X           Y           Z
 ---------------------------------------------------------------------
      1          1           0       -3.323782   -1.066175   -0.341198
      2          6           0       -2.252922   -1.048054   -0.123073
      3          6           0       -1.720712    0.381875   -0.038572
      4          1           0       -1.758236   -1.617232   -0.915939
      5          1           0       -2.097266   -1.584909    0.815952
      6          1           0       -1.891328    0.909419   -0.983554
      7         14           0        0.091441    0.507231    0.364681
      8          1           0       -2.266789    0.943847    0.726580
      9          8           0        0.798946    1.852331   -0.274079
     10          8           0        0.772622   -0.872490   -0.209108
     11          1           0        0.358165    0.638052    1.820389
     12          1           0        0.702730    1.997777   -1.216850
     13          6           0        2.129675   -1.206592   -0.033856
     14          1           0        2.295347   -2.202793   -0.448756
     15          1           0        2.404814   -1.222388    1.026929
     16          1           0        2.787386   -0.498936   -0.550582
 ---------------------------------------------------------------------

 SCF Done:  E(RPBE1PBE) =  -560.059941751     A.U. after   12 cycles

 The electronic state is 1-A.
 Alpha  occ. eigenvalues --  -66.25390 -19.20268 -19.20046 -10.26477 -10.21053
 Alpha  occ. eigenvalues --  -10.20835  -5.33054  -3.66585  -3.66465  -3.66326
 Alpha  occ. eigenvalues --   -1.04467  -1.02300  -0.77890  -0.70458  -0.63755
 Alpha  occ. eigenvalues --   -0.56732  -0.51208  -0.47042  -0.46785  -0.45492
 Alpha  occ. eigenvalues --   -0.42678  -0.40909  -0.38860  -0.37964  -0.35724
 Alpha  occ. eigenvalues --   -0.35431  -0.31766  -0.30693  -0.29488
 Alpha virt. eigenvalues --    0.03195   0.04376   0.05552   0.08350   0.08729
 Alpha virt. eigenvalues --    0.10662   0.11179   0.11666   0.12233   0.13238
 Alpha virt. eigenvalues --    0.14598   0.14872   0.15639   0.18086   0.19231

 Mulliken atomic charges:
              1
     1  H    0.120637
     2  C   -0.360871
     3  C   -0.327952
     4  H    0.131554
     5  H    0.120134
     6  H    0.105993
     7  Si   0.546283
     8  H    0.123141
     9  O   -0.531163
    10  O   -0.334095
    11  H   -0.066360
    12  H    0.318141
    13  C   -0.210851
    14  H    0.127991
    15  H    0.118299
    16  H    0.119118
 Sum of Mulliken atomic charges =   0.00000

 Dipole moment (field-independent basis, Debye):
    X=             -0.0709    Y=             -0.2716    Z=             -1.1030  Tot=              1.1381
 Quadrupole moment (field-independent basis, Debye-Ang):
   XX=            -42.8483   YY=            -47.2923   ZZ=            -43.0563
   XY=             -3.1145   XZ=             -1.0201   YZ=             -3.4562

 Normal termination of Gaussian 09 at Fri Jun 29 10:39:03 2018.
