 Gaussian 09, Revision C.01,
 Gaussian 09:  EM64L-G09RevC.01 23-Sep-2011

 --------------------------------------
 #SP PBE1PBE/Def2TZVP geom=connectivity
 --------------------------------------

 99/5=1,9=1/99;
 -------------
 Structure: 15
 -------------
 Charge =  0 Multiplicity = 1

                         Standard orientation:
 ---------------------------------------------------------------------
 Center     Atomic      Atomic             Coordinates (Angstroms)
 Number     Number       Type             X           Y           Z
 ---------------------------------------------------------------------
      1          1           0       -3.338885   -1.047245   -0.336092
      2          6           0       -2.272464   -1.036731   -0.096749
      3          6           0       -1.715513    0.386079   -0.074346
      4          1           0       -1.772661   -1.654608   -0.848906
      5          1           0       -2.145703   -1.527146    0.871566
      6          1           0       -1.857282    0.867152   -1.048447
      7         14           0        0.090206    0.500180    0.359916
      8          1           0       -2.266266    0.996235    0.649428
      9          8           0        0.811333    1.853333   -0.245661
     10          8           0        0.777334   -0.870938   -0.225663
     11          1           0        0.334143    0.605482    1.821173
     12          1           0        0.730725    2.015620   -1.185998
     13          6           0        2.130554   -1.211432   -0.034035
     14          1           0        2.301036   -2.201319   -0.462451
     15          1           0        2.389040   -1.245669    1.030592
     16          1           0        2.798158   -0.497688   -0.528308
 ---------------------------------------------------------------------

 SCF Done:  E(RPBE1PBE) =  -560.060238642     A.U. after   12 cycles

 The electronic state is 1-A.
 Alpha  occ. eigenvalues --  -66.25381 -19.20259 -19.20043 -10.26475 -10.21076
 Alpha  occ. eigenvalues --  -10.20846  -5.33047  -3.66578  -3.66456  -3.66318
 Alpha  occ. eigenvalues --   -1.04476  -1.02317  -0.77901  -0.70468  -0.63761
 Alpha  occ. eigenvalues --   -0.56762  -0.51215  -0.47036  -0.46775  -0.45498
 Alpha  occ. eigenvalues --   -0.42731  -0.40911  -0.38832  -0.37977  -0.35682
 Alpha  occ. eigenvalues --   -0.35506  -0.31793  -0.30693  -0.29485
 Alpha virt. eigenvalues --    0.03199   0.04436   0.05540   0.08359   0.08785
 Alpha virt. eigenvalues --    0.10644   0.11204   0.11620   0.12306   0.13239
 Alpha virt. eigenvalues --    0.14685   0.14913   0.15696   0.17968   0.19055

 Mulliken atomic charges:
              1
     1  H    0.120981
     2  C   -0.364272
     3  C   -0.324570
     4  H    0.132853
     5  H    0.120366
     6  H    0.105678
     7  Si   0.545704
     8  H    0.122845
     9  O   -0.531554
    10  O   -0.334980
    11  H   -0.066292
    12  H    0.318093
    13  C   -0.210315
    14  H    0.127980
    15  H    0.118264
    16  H    0.119219
 Sum of Mulliken atomic charges =   0.00000

 Dipole moment (field-independent basis, Debye):
    X=             -0.0573    Y=             -0.2502    Z=             -1.1079  Tot=              1.1372
 Quadrupole moment (field-independent basis, Debye-Ang):
   XX=            -42.8025   YY=            -47.1418   ZZ=            -43.1847
   XY=             -3.0477   XZ=             -1.0510   YZ=             -3.5271

 Normal termination of Gaussian 09 at Fri Jun 29 10:47:26 2018.
