 Gaussian 09, Revision C.01,
 Gaussian 09:  EM64L-G09RevC.01 23-Sep-2011

 --------------------------------------
 #SP PBE1PBE/Def2TZVP geom=connectivity
 --------------------------------------

 99/5=1,9=1/99;
 -------------
 Structure: 12
 -------------
 Charge =  0 Multiplicity = 1

                         Standard orientation:
 ---------------------------------------------------------------------
 Center     Atomic      Atomic             Coordinates (Angstroms)
 Number     Number       Type             X           Y           Z
 ---------------------------------------------------------------------
      1          1           0       -3.316766   -1.074952   -0.344043
      2          6           0       -2.243873   -1.052845   -0.136532
      3          6           0       -1.723287    0.379151   -0.020510
      4          1           0       -1.752598   -1.596913   -0.948907
      5          1           0       -2.073693   -1.612327    0.786630
      6          1           0       -1.908407    0.929344   -0.949714
      7         14           0        0.091839    0.510335    0.367219
      8          1           0       -2.266176    0.916268    0.764504
      9          8           0        0.793110    1.851323   -0.288505
     10          8           0        0.771168   -0.872441   -0.200924
     11          1           0        0.370261    0.652928    1.819993
     12          1           0        0.688344    1.989253   -1.231079
     13          6           0        2.129129   -1.203928   -0.033825
     14          1           0        2.292800   -2.202932   -0.441793
     15          1           0        2.413414   -1.210662    1.025311
     16          1           0        2.781033   -0.500027   -0.561327
 ---------------------------------------------------------------------

 SCF Done:  E(RPBE1PBE) =  -560.059791900     A.U. after   12 cycles

 The electronic state is 1-A.
 Alpha  occ. eigenvalues --  -66.25402 -19.20254 -19.20044 -10.26464 -10.21050
 Alpha  occ. eigenvalues --  -10.20838  -5.33065  -3.66596  -3.66475  -3.66335
 Alpha  occ. eigenvalues --   -1.04482  -1.02299  -0.77892  -0.70459  -0.63758
 Alpha  occ. eigenvalues --   -0.56725  -0.51215  -0.47051  -0.46802  -0.45494
 Alpha  occ. eigenvalues --   -0.42666  -0.40906  -0.38871  -0.37955  -0.35745
 Alpha  occ. eigenvalues --   -0.35393  -0.31748  -0.30687  -0.29496
 Alpha virt. eigenvalues --    0.03205   0.04344   0.05561   0.08347   0.08705
 Alpha virt. eigenvalues --    0.10661   0.11167   0.11691   0.12203   0.13252
 Alpha virt. eigenvalues --    0.14548   0.14851   0.15611   0.18135   0.19294

 Mulliken atomic charges:
              1
     1  H    0.120534
     2  C   -0.359115
     3  C   -0.329805
     4  H    0.130814
     5  H    0.120068
     6  H    0.106341
     7  Si   0.546676
     8  H    0.123327
     9  O   -0.531205
    10  O   -0.333258
    11  H   -0.066353
    12  H    0.317941
    13  C   -0.211056
    14  H    0.127898
    15  H    0.118074
    16  H    0.119120
 Sum of Mulliken atomic charges =   0.00000

 Dipole moment (field-independent basis, Debye):
    X=             -0.0862    Y=             -0.2837    Z=             -1.0982  Tot=              1.1376
 Quadrupole moment (field-independent basis, Debye-Ang):
   XX=            -42.8734   YY=            -47.3616   ZZ=            -42.9973
   XY=             -3.1481   XZ=             -1.0013   YZ=             -3.4151

 Normal termination of Gaussian 09 at Fri Jun 29 10:34:38 2018.
