 Gaussian 09, Revision C.01,
 Gaussian 09:  EM64L-G09RevC.01 23-Sep-2011

 --------------------------------------
 #SP PBE1PBE/Def2TZVP geom=connectivity
 --------------------------------------

 99/5=1,9=1/99;
 -------------
 Structure: 19
 -------------
 Charge =  0 Multiplicity = 1

                         Standard orientation:
 ---------------------------------------------------------------------
 Center     Atomic      Atomic             Coordinates (Angstroms)
 Number     Number       Type             X           Y           Z
 ---------------------------------------------------------------------
      1          1           0       -3.367601   -1.015741   -0.325749
      2          6           0       -2.311350   -1.014548   -0.044713
      3          6           0       -1.704644    0.384344   -0.145186
      4          1           0       -1.805990   -1.722874   -0.708189
      5          1           0       -2.239225   -1.405545    0.973191
      6          1           0       -1.791874    0.765933   -1.168505
      7         14           0        0.086232    0.485102    0.349625
      8          1           0       -2.260084    1.083677    0.488761
      9          8           0        0.824135    1.857091   -0.189378
     10          8           0        0.793546   -0.866806   -0.257311
     11          1           0        0.283424    0.544925    1.821187
     12          1           0        0.773415    2.048708   -1.127429
     13          6           0        2.140684   -1.213063   -0.033553
     14          1           0        2.324634   -2.189149   -0.487423
     15          1           0        2.365068   -1.280648    1.036882
     16          1           0        2.821401   -0.483389   -0.483247
 ---------------------------------------------------------------------

 SCF Done:  E(RPBE1PBE) =  -560.060797640     A.U. after   12 cycles

 The electronic state is 1-A.
 Alpha  occ. eigenvalues --  -66.25384 -19.20281 -19.20037 -10.26466 -10.21126
 Alpha  occ. eigenvalues --  -10.20863  -5.33047  -3.66577  -3.66456  -3.66319
 Alpha  occ. eigenvalues --   -1.04454  -1.02299  -0.77923  -0.70478  -0.63772
 Alpha  occ. eigenvalues --   -0.56761  -0.51199  -0.47010  -0.46756  -0.45515
 Alpha  occ. eigenvalues --   -0.42849  -0.40917  -0.38758  -0.38000  -0.35664
 Alpha  occ. eigenvalues --   -0.35595  -0.31845  -0.30677  -0.29479
 Alpha virt. eigenvalues --    0.03148   0.04555   0.05525   0.08361   0.08928
 Alpha virt. eigenvalues --    0.10567   0.11224   0.11552   0.12450   0.13231
 Alpha virt. eigenvalues --    0.14835   0.14971   0.15762   0.17680   0.18590

 Mulliken atomic charges:
              1
     1  H    0.121806
     2  C   -0.370066
     3  C   -0.319486
     4  H    0.134592
     5  H    0.120949
     6  H    0.105819
     7  Si   0.545155
     8  H    0.122440
     9  O   -0.532370
    10  O   -0.337360
    11  H   -0.066141
    12  H    0.318630
    13  C   -0.209682
    14  H    0.128070
    15  H    0.118260
    16  H    0.119386
 Sum of Mulliken atomic charges =   0.00000

 Dipole moment (field-independent basis, Debye):
    X=             -0.0275    Y=             -0.2120    Z=             -1.1204  Tot=              1.1406
 Quadrupole moment (field-independent basis, Debye-Ang):
   XX=            -42.6792   YY=            -46.8884   ZZ=            -43.4488
   XY=             -2.8859   XZ=             -1.0805   YZ=             -3.6696

 Normal termination of Gaussian 09 at Fri Jun 29 11:04:45 2018.
