 Gaussian 09, Revision C.01,
 Gaussian 09:  EM64L-G09RevC.01 23-Sep-2011

 --------------------------------------
 #SP PBE1PBE/Def2TZVP geom=connectivity
 --------------------------------------

 99/5=1,9=1/99;
 -------------
 Structure: 17
 -------------
 Charge =  0 Multiplicity = 1

                         Standard orientation:
 ---------------------------------------------------------------------
 Center     Atomic      Atomic             Coordinates (Angstroms)
 Number     Number       Type             X           Y           Z
 ---------------------------------------------------------------------
      1          1           0       -3.353334   -1.030980   -0.330868
      2          6           0       -2.291801   -1.025876   -0.070540
      3          6           0       -1.710262    0.386690   -0.109982
      4          1           0       -1.788354   -1.690158   -0.779472
      5          1           0       -2.192797   -1.467497    0.924135
      6          1           0       -1.824321    0.818933   -1.110261
      7         14           0        0.088319    0.492991    0.354811
      8          1           0       -2.264221    1.042642    0.569964
      9          8           0        0.819293    1.855434   -0.217422
     10          8           0        0.784731   -0.869829   -0.241379
     11          1           0        0.308989    0.574934    1.821368
     12          1           0        0.753180    2.031971   -1.156287
     13          6           0        2.134875   -1.213180   -0.034264
     14          1           0        2.310598   -2.196048   -0.475425
     15          1           0        2.375588   -1.264339    1.034082
     16          1           0        2.809145   -0.491979   -0.505456
 ---------------------------------------------------------------------

 SCF Done:  E(RPBE1PBE) =  -560.060524123     A.U. after   12 cycles

 The electronic state is 1-A.
 Alpha  occ. eigenvalues --  -66.25390 -19.20273 -19.20033 -10.26453 -10.21102
 Alpha  occ. eigenvalues --  -10.20861  -5.33053  -3.66583  -3.66463  -3.66325
 Alpha  occ. eigenvalues --   -1.04463  -1.02322  -0.77915  -0.70469  -0.63771
 Alpha  occ. eigenvalues --   -0.56768  -0.51205  -0.47025  -0.46772  -0.45509
 Alpha  occ. eigenvalues --   -0.42787  -0.40924  -0.38797  -0.37996  -0.35649
 Alpha  occ. eigenvalues --   -0.35581  -0.31812  -0.30688  -0.29478
 Alpha virt. eigenvalues --    0.03178   0.04494   0.05530   0.08369   0.08849
 Alpha virt. eigenvalues --    0.10610   0.11223   0.11578   0.12379   0.13243
 Alpha virt. eigenvalues --    0.14767   0.14947   0.15734   0.17826   0.18830

 Mulliken atomic charges:
              1
     1  H    0.121381
     2  C   -0.367298
     3  C   -0.321714
     4  H    0.133885
     5  H    0.120655
     6  H    0.105627
     7  Si   0.545433
     8  H    0.122642
     9  O   -0.531775
    10  O   -0.336645
    11  H   -0.066165
    12  H    0.318234
    13  C   -0.209656
    14  H    0.127987
    15  H    0.118091
    16  H    0.119319
 Sum of Mulliken atomic charges =   0.00000

 Dipole moment (field-independent basis, Debye):
    X=             -0.0463    Y=             -0.2285    Z=             -1.1148  Tot=              1.1389
 Quadrupole moment (field-independent basis, Debye-Ang):
   XX=            -42.7470   YY=            -47.0181   ZZ=            -43.3150
   XY=             -2.9676   XZ=             -1.0716   YZ=             -3.5939

 Normal termination of Gaussian 09 at Fri Jun 29 10:55:57 2018.
