 Gaussian 09, Revision C.01,
 Gaussian 09:  EM64L-G09RevC.01 23-Sep-2011

 --------------------------------------
 #SP PBE1PBE/Def2TZVP geom=connectivity
 --------------------------------------

 99/5=1,9=1/99;
 -------------
 Structure: 14
 -------------
 Charge =  0 Multiplicity = 1

                         Standard orientation:
 ---------------------------------------------------------------------
 Center     Atomic      Atomic             Coordinates (Angstroms)
 Number     Number       Type             X           Y           Z
 ---------------------------------------------------------------------
      1          1           0       -3.331374   -1.056893   -0.338653
      2          6           0       -2.262682   -1.042701   -0.109863
      3          6           0       -1.718272    0.384132   -0.056494
      4          1           0       -1.765146   -1.636483   -0.882648
      5          1           0       -2.121579   -1.556574    0.844199
      6          1           0       -1.874359    0.888676   -1.016429
      7         14           0        0.090731    0.503681    0.362363
      8          1           0       -2.266976    0.970453    0.688234
      9          8           0        0.805352    1.853487   -0.259901
     10          8           0        0.775245   -0.871521   -0.217773
     11          1           0        0.346412    0.621723    1.821703
     12          1           0        0.716387    2.006759   -1.201054
     13          6           0        2.130233   -1.209688   -0.033667
     14          1           0        2.297300   -2.202226   -0.456290
     15          1           0        2.396069   -1.234706    1.028814
     16          1           0        2.792596   -0.498457   -0.539427
 ---------------------------------------------------------------------

 SCF Done:  E(RPBE1PBE) =  -560.060092463     A.U. after   12 cycles

 The electronic state is 1-A.
 Alpha  occ. eigenvalues --  -66.25399 -19.20255 -19.20043 -10.26473 -10.21068
 Alpha  occ. eigenvalues --  -10.20847  -5.33061  -3.66592  -3.66471  -3.66332
 Alpha  occ. eigenvalues --   -1.04466  -1.02306  -0.77899  -0.70467  -0.63762
 Alpha  occ. eigenvalues --   -0.56738  -0.51205  -0.47044  -0.46783  -0.45502
 Alpha  occ. eigenvalues --   -0.42707  -0.40912  -0.38840  -0.37972  -0.35699
 Alpha  occ. eigenvalues --   -0.35470  -0.31779  -0.30691  -0.29490
 Alpha virt. eigenvalues --    0.03204   0.04401   0.05544   0.08356   0.08752
 Alpha virt. eigenvalues --    0.10651   0.11190   0.11641   0.12259   0.13239
 Alpha virt. eigenvalues --    0.14645   0.14883   0.15668   0.18025   0.19148

 Mulliken atomic charges:
              1
     1  H    0.120820
     2  C   -0.362646
     3  C   -0.326096
     4  H    0.132257
     5  H    0.120257
     6  H    0.105845
     7  Si   0.545857
     8  H    0.123036
     9  O   -0.531444
    10  O   -0.334715
    11  H   -0.066298
    12  H    0.317948
    13  C   -0.210315
    14  H    0.128000
    15  H    0.118344
    16  H    0.119149
 Sum of Mulliken atomic charges =   0.00000

 Dipole moment (field-independent basis, Debye):
    X=             -0.0673    Y=             -0.2664    Z=             -1.1038  Tot=              1.1375
 Quadrupole moment (field-independent basis, Debye-Ang):
   XX=            -42.8251   YY=            -47.2241   ZZ=            -43.1215
   XY=             -3.0891   XZ=             -1.0325   YZ=             -3.4891

 Normal termination of Gaussian 09 at Fri Jun 29 10:43:10 2018.
