 Gaussian 09, Revision C.01,
 Gaussian 09:  EM64L-G09RevC.01 23-Sep-2011

 --------------------------------------
 #SP PBE1PBE/Def2TZVP geom=connectivity
 --------------------------------------

 99/5=1,9=1/99;
 -------------
 Structure: 10
 -------------
 Charge =  0 Multiplicity = 1

                         Standard orientation:
 ---------------------------------------------------------------------
 Center     Atomic      Atomic             Coordinates (Angstroms)
 Number     Number       Type             X           Y           Z
 ---------------------------------------------------------------------
      1          1           0       -3.301719   -1.094666   -0.349239
      2          6           0       -2.225116   -1.062894   -0.163325
      3          6           0       -1.727823    0.370861    0.015931
      4          1           0       -1.742052   -1.554982   -1.012921
      5          1           0       -2.024822   -1.665829    0.725810
      6          1           0       -1.943016    0.964549   -0.879407
      7         14           0        0.092703    0.516368    0.371931
      8          1           0       -2.262954    0.856438    0.838925
      9          8           0        0.776430    1.849380   -0.317205
     10          8           0        0.768868   -0.872594   -0.184498
     11          1           0        0.393534    0.684630    1.816949
     12          1           0        0.656422    1.971434   -1.259857
     13          6           0        2.130940   -1.195374   -0.033152
     14          1           0        2.292650   -2.200287   -0.427479
     15          1           0        2.431908   -1.183452    1.020376
     16          1           0        2.771823   -0.496843   -0.583282
 ---------------------------------------------------------------------

 SCF Done:  E(RPBE1PBE) =  -560.059493837     A.U. after   12 cycles

 The electronic state is 1-A.
 Alpha  occ. eigenvalues --  -66.25394 -19.20241 -19.20048 -10.26472 -10.21029
 Alpha  occ. eigenvalues --  -10.20818  -5.33059  -3.66590  -3.66469  -3.66329
 Alpha  occ. eigenvalues --   -1.04485  -1.02301  -0.77877  -0.70455  -0.63748
 Alpha  occ. eigenvalues --   -0.56725  -0.51219  -0.47056  -0.46803  -0.45488
 Alpha  occ. eigenvalues --   -0.42621  -0.40894  -0.38907  -0.37936  -0.35790
 Alpha  occ. eigenvalues --   -0.35316  -0.31732  -0.30678  -0.29507
 Alpha virt. eigenvalues --    0.03211   0.04298   0.05580   0.08330   0.08680
 Alpha virt. eigenvalues --    0.10661   0.11140   0.11729   0.12180   0.13246
 Alpha virt. eigenvalues --    0.14458   0.14815   0.15548   0.18234   0.19388

 Mulliken atomic charges:
              1
     1  H    0.120294
     2  C   -0.355327
     3  C   -0.334086
     4  H    0.129089
     5  H    0.119913
     6  H    0.107117
     7  Si   0.547751
     8  H    0.123576
     9  O   -0.530748
    10  O   -0.331922
    11  H   -0.066437
    12  H    0.317750
    13  C   -0.212167
    14  H    0.127914
    15  H    0.118259
    16  H    0.119024
 Sum of Mulliken atomic charges =   0.00000

 Dipole moment (field-independent basis, Debye):
    X=             -0.0959    Y=             -0.3045    Z=             -1.0864  Tot=              1.1324
 Quadrupole moment (field-independent basis, Debye-Ang):
   XX=            -42.8981   YY=            -47.5027   ZZ=            -42.8784
   XY=             -3.2005   XZ=             -0.9532   YZ=             -3.3421

 Normal termination of Gaussian 09 at Fri Jun 29 10:28:32 2018.
