 Gaussian 09, Revision C.01,
 Gaussian 09:  EM64L-G09RevC.01 23-Sep-2011

 --------------------------------------
 #SP PBE1PBE/Def2TZVP geom=connectivity
 --------------------------------------

 99/5=1,9=1/99;
 ------------
 Structure: 1
 ------------
 Charge =  0 Multiplicity = 1

                         Standard orientation:
 ---------------------------------------------------------------------
 Center     Atomic      Atomic             Coordinates (Angstroms)
 Number     Number       Type             X           Y           Z
 ---------------------------------------------------------------------
      1          1           0       -3.237926   -1.186855   -0.371514
      2          6           0       -2.152331   -1.094996   -0.283801
      3          6           0       -1.742241    0.301729    0.181033
      4          1           0       -1.733635   -1.333132   -1.266297
      5          1           0       -1.810740   -1.861681    0.415999
      6          1           0       -2.098631    1.059428   -0.525565
      7         14           0        0.091576    0.536591    0.391223
      8          1           0       -2.215058    0.534590    1.141080
      9          8           0        0.672201    1.835582   -0.441971
     10          8           0        0.781389   -0.867414   -0.108986
     11          1           0        0.486457    0.824953    1.793846
     12          1           0        0.481367    1.881079   -1.380074
     13          6           0        2.162810   -1.129619   -0.034545
     14          1           0        2.336781   -2.156753   -0.364365
     15          1           0        2.536471   -1.027371    0.990718
     16          1           0        2.734701   -0.454563   -0.679416
 ---------------------------------------------------------------------

 SCF Done:  E(RPBE1PBE) =  -560.058632704     A.U. after   12 cycles

 The electronic state is 1-A.
 Alpha  occ. eigenvalues --  -66.25389 -19.20214 -19.20061 -10.26475 -10.21003
 Alpha  occ. eigenvalues --  -10.20762  -5.33057  -3.66588  -3.66469  -3.66326
 Alpha  occ. eigenvalues --   -1.04486  -1.02288  -0.77856  -0.70442  -0.63740
 Alpha  occ. eigenvalues --   -0.56688  -0.51223  -0.47041  -0.46810  -0.45501
 Alpha  occ. eigenvalues --   -0.42524  -0.40868  -0.39025  -0.37839  -0.36026
 Alpha  occ. eigenvalues --   -0.35006  -0.31695  -0.30609  -0.29581
 Alpha virt. eigenvalues --    0.03039   0.04285   0.05691   0.08238   0.08730
 Alpha virt. eigenvalues --    0.10541   0.11033   0.11572   0.12589   0.13159
 Alpha virt. eigenvalues --    0.14082   0.14672   0.15246   0.18410   0.19553

 Mulliken atomic charges:
              1
     1  H    0.120306
     2  C   -0.340763
     3  C   -0.354498
     4  H    0.119500
     5  H    0.121955
     6  H    0.113872
     7  Si   0.552159
     8  H    0.124503
     9  O   -0.528612
    10  O   -0.327576
    11  H   -0.066227
    12  H    0.317511
    13  C   -0.217629
    14  H    0.127692
    15  H    0.118171
    16  H    0.119637
 Sum of Mulliken atomic charges =   0.00000

 Dipole moment (field-independent basis, Debye):
    X=             -0.1535    Y=             -0.3943    Z=             -1.0360  Tot=              1.1191
 Quadrupole moment (field-independent basis, Debye-Ang):
   XX=            -42.8163   YY=            -48.1672   ZZ=            -42.4775
   XY=             -3.2939   XZ=             -0.6747   YZ=             -2.9603

 Normal termination of Gaussian 09 at Fri Jun 29 11:08:55 2018.
