 Gaussian 09, Revision C.01,
 Gaussian 09:  EM64L-G09RevC.01 23-Sep-2011

 --------------------------------------
 #SP PBE1PBE/Def2TZVP geom=connectivity
 --------------------------------------

 99/5=1,9=1/99;
 -------------
 Structure: 18
 -------------
 Charge =  0 Multiplicity = 1

                         Standard orientation:
 ---------------------------------------------------------------------
 Center     Atomic      Atomic             Coordinates (Angstroms)
 Number     Number       Type             X           Y           Z
 ---------------------------------------------------------------------
      1          1           0       -3.360392   -1.023436   -0.328269
      2          6           0       -2.301437   -1.020407   -0.057612
      3          6           0       -1.707488    0.385795   -0.127661
      4          1           0       -1.796812   -1.706950   -0.744144
      5          1           0       -2.215895   -1.436967    0.949051
      6          1           0       -1.808109    0.792960   -1.139833
      7         14           0        0.087328    0.489156    0.352107
      8          1           0       -2.262409    1.063680    0.529608
      9          8           0        0.821920    1.856577   -0.203164
     10          8           0        0.788802   -0.868391   -0.249042
     11          1           0        0.295938    0.559950    1.820815
     12          1           0        0.764082    2.040486   -1.141966
     13          6           0        2.137523   -1.213645   -0.034016
     14          1           0        2.317699   -2.193097   -0.481663
     15          1           0        2.370134   -1.272983    1.035330
     16          1           0        2.815804   -0.487776   -0.495055
 ---------------------------------------------------------------------

 SCF Done:  E(RPBE1PBE) =  -560.060663478     A.U. after   12 cycles

 The electronic state is 1-A.
 Alpha  occ. eigenvalues --  -66.25382 -19.20279 -19.20039 -10.26474 -10.21112
 Alpha  occ. eigenvalues --  -10.20860  -5.33046  -3.66576  -3.66455  -3.66318
 Alpha  occ. eigenvalues --   -1.04459  -1.02307  -0.77918  -0.70472  -0.63770
 Alpha  occ. eigenvalues --   -0.56760  -0.51202  -0.47016  -0.46761  -0.45511
 Alpha  occ. eigenvalues --   -0.42818  -0.40919  -0.38778  -0.37998  -0.35640
 Alpha  occ. eigenvalues --   -0.35601  -0.31832  -0.30685  -0.29477
 Alpha virt. eigenvalues --    0.03159   0.04527   0.05528   0.08362   0.08890
 Alpha virt. eigenvalues --    0.10591   0.11224   0.11562   0.12421   0.13226
 Alpha virt. eigenvalues --    0.14801   0.14963   0.15751   0.17754   0.18709

 Mulliken atomic charges:
              1
     1  H    0.121583
     2  C   -0.368696
     3  C   -0.320538
     4  H    0.134251
     5  H    0.120792
     6  H    0.105675
     7  Si   0.545312
     8  H    0.122521
     9  O   -0.532126
    10  O   -0.336886
    11  H   -0.066208
    12  H    0.318466
    13  C   -0.209768
    14  H    0.128076
    15  H    0.118269
    16  H    0.119276
 Sum of Mulliken atomic charges =   0.00000

 Dipole moment (field-independent basis, Debye):
    X=             -0.0346    Y=             -0.2217    Z=             -1.1189  Tot=              1.1412
 Quadrupole moment (field-independent basis, Debye-Ang):
   XX=            -42.7131   YY=            -46.9536   ZZ=            -43.3806
   XY=             -2.9289   XZ=             -1.0793   YZ=             -3.6329

 Normal termination of Gaussian 09 at Fri Jun 29 10:59:54 2018.
