 Gaussian 09, Revision C.01,
 Gaussian 09:  EM64L-G09RevC.01 23-Sep-2011

 --------------------------------------
 #SP PBE1PBE/Def2TZVP geom=connectivity
 --------------------------------------

 99/5=1,9=1/99;
 -------------
 Structure: 11
 -------------
 Charge =  0 Multiplicity = 1

                         Standard orientation:
 ---------------------------------------------------------------------
 Center     Atomic      Atomic             Coordinates (Angstroms)
 Number     Number       Type             X           Y           Z
 ---------------------------------------------------------------------
      1          1           0       -3.309298   -1.084494   -0.346531
      2          6           0       -2.234488   -1.057791   -0.149754
      3          6           0       -1.725550    0.375519   -0.002481
      4          1           0       -1.747070   -1.576357   -0.980914
      5          1           0       -2.049439   -1.639091    0.756920
      6          1           0       -1.925519    0.947548   -0.915277
      7         14           0        0.092369    0.513507    0.369481
      8          1           0       -2.264807    0.887358    0.801690
      9          8           0        0.785276    1.849962   -0.302760
     10          8           0        0.769708   -0.872812   -0.192616
     11          1           0        0.381519    0.668553    1.818512
     12          1           0        0.673053    1.979233   -1.245931
     13          6           0        2.129702   -1.199464   -0.033640
     14          1           0        2.291965   -2.202492   -0.433887
     15          1           0        2.422331   -1.196725    1.022687
     16          1           0        2.776236   -0.499423   -0.571744
 ---------------------------------------------------------------------

 SCF Done:  E(RPBE1PBE) =  -560.059641201     A.U. after   12 cycles

 The electronic state is 1-A.
 Alpha  occ. eigenvalues --  -66.25393 -19.20259 -19.20044 -10.26458 -10.21038
 Alpha  occ. eigenvalues --  -10.20826  -5.33058  -3.66589  -3.66469  -3.66329
 Alpha  occ. eigenvalues --   -1.04489  -1.02307  -0.77883  -0.70457  -0.63752
 Alpha  occ. eigenvalues --   -0.56727  -0.51223  -0.47056  -0.46802  -0.45490
 Alpha  occ. eigenvalues --   -0.42640  -0.40905  -0.38893  -0.37948  -0.35773
 Alpha  occ. eigenvalues --   -0.35356  -0.31737  -0.30687  -0.29498
 Alpha virt. eigenvalues --    0.03203   0.04322   0.05571   0.08343   0.08691
 Alpha virt. eigenvalues --    0.10664   0.11156   0.11712   0.12188   0.13256
 Alpha virt. eigenvalues --    0.14504   0.14838   0.15581   0.18189   0.19349

 Mulliken atomic charges:
              1
     1  H    0.120399
     2  C   -0.357237
     3  C   -0.331919
     4  H    0.129981
     5  H    0.119983
     6  H    0.106658
     7  Si   0.547060
     8  H    0.123438
     9  O   -0.530743
    10  O   -0.332648
    11  H   -0.066406
    12  H    0.317956
    13  C   -0.211560
    14  H    0.127806
    15  H    0.118103
    16  H    0.119130
 Sum of Mulliken atomic charges =   0.00000

 Dipole moment (field-independent basis, Debye):
    X=             -0.0899    Y=             -0.2906    Z=             -1.0940  Tot=              1.1355
 Quadrupole moment (field-independent basis, Debye-Ang):
   XX=            -42.8873   YY=            -47.4349   ZZ=            -42.9370
   XY=             -3.1685   XZ=             -0.9801   YZ=             -3.3784

 Normal termination of Gaussian 09 at Fri Jun 29 10:31:02 2018.
