 Gaussian 09, Revision C.01,
 Gaussian 09:  EM64L-G09RevC.01 23-Sep-2011

 --------------------------------------
 #SP PBE1PBE/Def2TZVP geom=connectivity
 --------------------------------------

 99/5=1,9=1/99;
 -------------
 Structure: 16
 -------------
 Charge =  0 Multiplicity = 1

                         Standard orientation:
 ---------------------------------------------------------------------
 Center     Atomic      Atomic             Coordinates (Angstroms)
 Number     Number       Type             X           Y           Z
 ---------------------------------------------------------------------
      1          1           0       -3.346076   -1.039144   -0.333545
      2          6           0       -2.282058   -1.031486   -0.083634
      3          6           0       -1.712941    0.386652   -0.092216
      4          1           0       -1.780158   -1.672832   -0.814445
      5          1           0       -2.169308   -1.497743    0.898253
      6          1           0       -1.840722    0.843548   -1.079799
      7         14           0        0.089261    0.496631    0.357448
      8          1           0       -2.265569    1.019978    0.609902
      9          8           0        0.815683    1.855052   -0.231570
     10          8           0        0.781389   -0.870677   -0.233835
     11          1           0        0.320888    0.590771    1.821951
     12          1           0        0.742395    2.024354   -1.171189
     13          6           0        2.131905   -1.212963   -0.033999
     14          1           0        2.305839   -2.199321   -0.468779
     15          1           0        2.381968   -1.255152    1.032548
     16          1           0        2.803076   -0.495510   -0.516841
 ---------------------------------------------------------------------

 SCF Done:  E(RPBE1PBE) =  -560.060381971     A.U. after   12 cycles

 The electronic state is 1-A.
 Alpha  occ. eigenvalues --  -66.25409 -19.20267 -19.20044 -10.26456 -10.21093
 Alpha  occ. eigenvalues --  -10.20861  -5.33069  -3.66600  -3.66479  -3.66341
 Alpha  occ. eigenvalues --   -1.04485  -1.02322  -0.77914  -0.70460  -0.63771
 Alpha  occ. eigenvalues --   -0.56763  -0.51219  -0.47036  -0.46780  -0.45509
 Alpha  occ. eigenvalues --   -0.42768  -0.40919  -0.38813  -0.37987  -0.35662
 Alpha  occ. eigenvalues --   -0.35544  -0.31799  -0.30684  -0.29486
 Alpha virt. eigenvalues --    0.03186   0.04460   0.05532   0.08369   0.08809
 Alpha virt. eigenvalues --    0.10626   0.11213   0.11596   0.12337   0.13240
 Alpha virt. eigenvalues --    0.14726   0.14923   0.15713   0.17893   0.18946

 Mulliken atomic charges:
              1
     1  H    0.121198
     2  C   -0.365850
     3  C   -0.322985
     4  H    0.133430
     5  H    0.120521
     6  H    0.105661
     7  Si   0.545715
     8  H    0.122779
     9  O   -0.531878
    10  O   -0.335881
    11  H   -0.066021
    12  H    0.318135
    13  C   -0.209833
    14  H    0.127864
    15  H    0.118025
    16  H    0.119120
 Sum of Mulliken atomic charges =   0.00000

 Dipole moment (field-independent basis, Debye):
    X=             -0.0584    Y=             -0.2397    Z=             -1.1099  Tot=              1.1370
 Quadrupole moment (field-independent basis, Debye-Ang):
   XX=            -42.7879   YY=            -47.0882   ZZ=            -43.2494
   XY=             -3.0048   XZ=             -1.0604   YZ=             -3.5598

 Normal termination of Gaussian 09 at Fri Jun 29 10:51:46 2018.
