 Gaussian 09, Revision C.01,
 Gaussian 09:  EM64L-G09RevC.01 23-Sep-2011

 --------------------------------------
 #SP PBE1PBE/Def2TZVP geom=connectivity
 --------------------------------------

 99/5=1,9=1/99;
 -------------
 Structure: 29
 -------------
 Charge =  0 Multiplicity = 1

                         Standard orientation:
 ---------------------------------------------------------------------
 Center     Atomic      Atomic             Coordinates (Angstroms)
 Number     Number       Type             X           Y           Z
 ---------------------------------------------------------------------
      1          1           0       -3.435931   -0.956105   -0.303491
      2          6           0       -2.410624   -0.950953    0.075149
      3          6           0       -1.674625    0.330743   -0.312983
      4          1           0       -1.917876   -1.839067   -0.331995
      5          1           0       -2.458070   -1.067378    1.160692
      6          1           0       -1.642570    0.437685   -1.402909
      7         14           0        0.071134    0.439360    0.321644
      8          1           0       -2.215453    1.205787    0.062880
      9          8           0        0.805858    1.865462   -0.062115
     10          8           0        0.861753   -0.847043   -0.323781
     11          1           0        0.158055    0.396458    1.804415
     12          1           0        0.818012    2.122992   -0.984733
     13          6           0        2.198413   -1.175525   -0.024516
     14          1           0        2.444522   -2.110860   -0.531001
     15          1           0        2.344970   -1.315186    1.052720
     16          1           0        2.888594   -0.398309   -0.368315
 ---------------------------------------------------------------------

 SCF Done:  E(RPBE1PBE) =  -560.061499020     A.U. after   12 cycles

 The electronic state is 1-A.
 Alpha  occ. eigenvalues --  -66.25391 -19.20268 -19.20035 -10.26458 -10.21274
 Alpha  occ. eigenvalues --  -10.20868  -5.33050  -3.66578  -3.66459  -3.66324
 Alpha  occ. eigenvalues --   -1.04444  -1.02293  -0.77985  -0.70502  -0.63793
 Alpha  occ. eigenvalues --   -0.56784  -0.51176  -0.46949  -0.46676  -0.45567
 Alpha  occ. eigenvalues --   -0.43243  -0.40870  -0.38596  -0.37983  -0.35992
 Alpha  occ. eigenvalues --   -0.35440  -0.31927  -0.30610  -0.29521
 Alpha virt. eigenvalues --    0.03088   0.04748   0.05535   0.08155   0.09471
 Alpha virt. eigenvalues --    0.10330   0.11097   0.11645   0.12608   0.13243
 Alpha virt. eigenvalues --    0.14684   0.15040   0.15820   0.17090   0.17872

 Mulliken atomic charges:
              1
     1  H    0.124109
     2  C   -0.381081
     3  C   -0.315423
     4  H    0.134815
     5  H    0.123381
     6  H    0.109882
     7  Si   0.547183
     8  H    0.122295
     9  O   -0.533339
    10  O   -0.338547
    11  H   -0.066602
    12  H    0.318896
    13  C   -0.211852
    14  H    0.128444
    15  H    0.118171
    16  H    0.119668
 Sum of Mulliken atomic charges =   0.00000

 Dipole moment (field-independent basis, Debye):
    X=              0.0325    Y=             -0.1277    Z=             -1.1325  Tot=              1.1402
 Quadrupole moment (field-independent basis, Debye-Ang):
   XX=            -42.2839   YY=            -46.3822   ZZ=            -44.1035
   XY=             -2.4006   XZ=             -0.9889   YZ=             -3.9605

 Normal termination of Gaussian 09 at Fri Jun 29 11:49:45 2018.
