 Gaussian 09, Revision C.01,
 Gaussian 09:  EM64L-G09RevC.01 23-Sep-2011

 --------------------------------------
 #SP PBE1PBE/Def2TZVP geom=connectivity
 --------------------------------------

 99/5=1,9=1/99;
 -------------
 Structure: 27
 -------------
 Charge =  0 Multiplicity = 1

                         Standard orientation:
 ---------------------------------------------------------------------
 Center     Atomic      Atomic             Coordinates (Angstroms)
 Number     Number       Type             X           Y           Z
 ---------------------------------------------------------------------
      1          1           0       -3.422940   -0.965134   -0.307446
      2          6           0       -2.390935   -0.964100    0.052573
      3          6           0       -1.680770    0.347267   -0.280695
      4          1           0       -1.893162   -1.822047   -0.409448
      5          1           0       -2.416469   -1.137875    1.131165
      6          1           0       -1.670568    0.511566   -1.363886
      7         14           0        0.074773    0.449248    0.327494
      8          1           0       -2.227005    1.193063    0.150264
      9          8           0        0.815805    1.863639   -0.085445
     10          8           0        0.844747   -0.852376   -0.312409
     11          1           0        0.181908    0.425167    1.808631
     12          1           0        0.816611    2.108754   -1.011390
     13          6           0        2.182801   -1.187361   -0.027233
     14          1           0        2.414749   -2.131627   -0.525468
     15          1           0        2.344382   -1.314991    1.049183
     16          1           0        2.874690   -0.421288   -0.391555
 ---------------------------------------------------------------------

 SCF Done:  E(RPBE1PBE) =  -560.061463284     A.U. after   12 cycles

 The electronic state is 1-A.
 Alpha  occ. eigenvalues --  -66.25386 -19.20275 -19.20043 -10.26464 -10.21244
 Alpha  occ. eigenvalues --  -10.20871  -5.33047  -3.66575  -3.66456  -3.66321
 Alpha  occ. eigenvalues --   -1.04455  -1.02305  -0.77973  -0.70492  -0.63791
 Alpha  occ. eigenvalues --   -0.56787  -0.51188  -0.46966  -0.46682  -0.45558
 Alpha  occ. eigenvalues --   -0.43156  -0.40891  -0.38632  -0.37997  -0.35931
 Alpha  occ. eigenvalues --   -0.35468  -0.31922  -0.30629  -0.29512
 Alpha virt. eigenvalues --    0.03095   0.04725   0.05531   0.08219   0.09357
 Alpha virt. eigenvalues --    0.10362   0.11130   0.11616   0.12613   0.13236
 Alpha virt. eigenvalues --    0.14800   0.15076   0.15777   0.17139   0.17932

 Mulliken atomic charges:
              1
     1  H    0.123697
     2  C   -0.379159
     3  C   -0.315499
     4  H    0.135165
     5  H    0.122742
     6  H    0.108740
     7  Si   0.546582
     8  H    0.122296
     9  O   -0.533219
    10  O   -0.338564
    11  H   -0.066312
    12  H    0.318822
    13  C   -0.211470
    14  H    0.128284
    15  H    0.118234
    16  H    0.119660
 Sum of Mulliken atomic charges =   0.00000

 Dipole moment (field-independent basis, Debye):
    X=              0.0211    Y=             -0.1419    Z=             -1.1290  Tot=              1.1381
 Quadrupole moment (field-independent basis, Debye-Ang):
   XX=            -42.3698   YY=            -46.4734   ZZ=            -43.9760
   XY=             -2.5043   XZ=             -1.0245   YZ=             -3.9086

 Normal termination of Gaussian 09 at Fri Jun 29 11:42:10 2018.
