 Gaussian 09, Revision C.01,
 Gaussian 09:  EM64L-G09RevC.01 23-Sep-2011

 --------------------------------------
 #SP PBE1PBE/Def2TZVP geom=connectivity
 --------------------------------------

 99/5=1,9=1/99;
 -------------
 Structure: 24
 -------------
 Charge =  0 Multiplicity = 1

                         Standard orientation:
 ---------------------------------------------------------------------
 Center     Atomic      Atomic             Coordinates (Angstroms)
 Number     Number       Type             X           Y           Z
 ---------------------------------------------------------------------
      1          1           0       -3.402448   -0.982664   -0.313839
      2          6           0       -2.360806   -0.984302    0.017263
      3          6           0       -1.690072    0.366100   -0.230961
      4          1           0       -1.857418   -1.791160   -0.523933
      5          1           0       -2.351435   -1.242128    1.079170
      6          1           0       -1.714685    0.614464   -1.297784
      7         14           0        0.079497    0.463534    0.335922
      8          1           0       -2.242511    1.162077    0.279629
      9          8           0        0.823451    1.861367   -0.122611
     10          8           0        0.822993   -0.858295   -0.293071
     11          1           0        0.220014    0.469052    1.815125
     12          1           0        0.807042    2.087881   -1.053595
     13          6           0        2.163989   -1.201384   -0.030633
     14          1           0        2.375925   -2.157822   -0.513947
     15          1           0        2.347810   -1.306436    1.044401
     16          1           0        2.854539   -0.449797   -0.426688
 ---------------------------------------------------------------------

 SCF Done:  E(RPBE1PBE) =  -560.061315852     A.U. after   12 cycles

 The electronic state is 1-A.
 Alpha  occ. eigenvalues --  -66.25380 -19.20281 -19.20037 -10.26470 -10.21197
 Alpha  occ. eigenvalues --  -10.20871  -5.33042  -3.66571  -3.66451  -3.66315
 Alpha  occ. eigenvalues --   -1.04452  -1.02305  -0.77953  -0.70490  -0.63784
 Alpha  occ. eigenvalues --   -0.56784  -0.51193  -0.46983  -0.46710  -0.45542
 Alpha  occ. eigenvalues --   -0.43032  -0.40904  -0.38673  -0.38006  -0.35835
 Alpha  occ. eigenvalues --   -0.35515  -0.31904  -0.30646  -0.29491
 Alpha virt. eigenvalues --    0.03110   0.04676   0.05527   0.08298   0.09184
 Alpha virt. eigenvalues --    0.10432   0.11180   0.11575   0.12582   0.13227
 Alpha virt. eigenvalues --    0.14894   0.15055   0.15771   0.17304   0.18096

 Mulliken atomic charges:
              1
     1  H    0.122987
     2  C   -0.375964
     3  C   -0.316344
     4  H    0.135322
     5  H    0.121945
     6  H    0.107343
     7  Si   0.545756
     8  H    0.122305
     9  O   -0.532974
    10  O   -0.338483
    11  H   -0.066259
    12  H    0.318830
    13  C   -0.210530
    14  H    0.128231
    15  H    0.118315
    16  H    0.119519
 Sum of Mulliken atomic charges =   0.00000

 Dipole moment (field-independent basis, Debye):
    X=              0.0070    Y=             -0.1663    Z=             -1.1295  Tot=              1.1417
 Quadrupole moment (field-independent basis, Debye-Ang):
   XX=            -42.4850   YY=            -46.6087   ZZ=            -43.7837
   XY=             -2.6528   XZ=             -1.0658   YZ=             -3.8252

 Normal termination of Gaussian 09 at Fri Jun 29 11:29:22 2018.
