 Gaussian 09, Revision C.01,
 Gaussian 09:  EM64L-G09RevC.01 23-Sep-2011

 --------------------------------------
 #SP PBE1PBE/Def2TZVP geom=connectivity
 --------------------------------------

 99/5=1,9=1/99;
 ------------
 Structure: 2
 ------------
 Charge =  0 Multiplicity = 1

                         Standard orientation:
 ---------------------------------------------------------------------
 Center     Atomic      Atomic             Coordinates (Angstroms)
 Number     Number       Type             X           Y           Z
 ---------------------------------------------------------------------
      1          1           0       -3.244252   -1.177435   -0.369233
      2          6           0       -2.158988   -1.093158   -0.270488
      3          6           0       -1.741462    0.311578    0.162491
      4          1           0       -1.730619   -1.360970   -1.241102
      5          1           0       -1.833177   -1.844155    0.453432
      6          1           0       -2.082073    1.053547   -0.568172
      7         14           0        0.091788    0.535238    0.389192
      8          1           0       -2.223723    0.574016    1.110131
      9          8           0        0.685480    1.837602   -0.428905
     10          8           0        0.778614   -0.868617   -0.116866
     11          1           0        0.477109    0.810127    1.797291
     12          1           0        0.502858    1.891303   -1.367685
     13          6           0        2.157748   -1.138807   -0.034277
     14          1           0        2.329343   -2.163355   -0.370579
     15          1           0        2.524168   -1.045481    0.994894
     16          1           0        2.738798   -0.460494   -0.667861
 ---------------------------------------------------------------------

 SCF Done:  E(RPBE1PBE) =  -560.058673245     A.U. after   12 cycles

 The electronic state is 1-A.
 Alpha  occ. eigenvalues --  -66.25396 -19.20218 -19.20056 -10.26467 -10.21002
 Alpha  occ. eigenvalues --  -10.20769  -5.33063  -3.66594  -3.66475  -3.66331
 Alpha  occ. eigenvalues --   -1.04488  -1.02305  -0.77857  -0.70437  -0.63741
 Alpha  occ. eigenvalues --   -0.56705  -0.51229  -0.47034  -0.46818  -0.45491
 Alpha  occ. eigenvalues --   -0.42530  -0.40873  -0.39016  -0.37855  -0.36003
 Alpha  occ. eigenvalues --   -0.35040  -0.31695  -0.30613  -0.29567
 Alpha virt. eigenvalues --    0.03074   0.04267   0.05677   0.08251   0.08710
 Alpha virt. eigenvalues --    0.10558   0.11043   0.11608   0.12520   0.13186
 Alpha virt. eigenvalues --    0.14109   0.14685   0.15278   0.18406   0.19536

 Mulliken atomic charges:
              1
     1  H    0.120235
     2  C   -0.341669
     3  C   -0.352690
     4  H    0.120571
     5  H    0.121429
     6  H    0.112986
     7  Si   0.552050
     8  H    0.124493
     9  O   -0.528625
    10  O   -0.328051
    11  H   -0.066265
    12  H    0.317425
    13  C   -0.217157
    14  H    0.127790
    15  H    0.118038
    16  H    0.119442
 Sum of Mulliken atomic charges =   0.00000

 Dipole moment (field-independent basis, Debye):
    X=             -0.1493    Y=             -0.3817    Z=             -1.0430  Tot=              1.1206
 Quadrupole moment (field-independent basis, Debye-Ang):
   XX=            -42.8416   YY=            -48.0947   ZZ=            -42.5133
   XY=             -3.2893   XZ=             -0.7118   YZ=             -3.0019

 Normal termination of Gaussian 09 at Fri Jun 29 11:53:44 2018.
