 Gaussian 09, Revision C.01,
 Gaussian 09:  EM64L-G09RevC.01 23-Sep-2011

 --------------------------------------
 #SP PBE1PBE/Def2TZVP geom=connectivity
 --------------------------------------

 99/5=1,9=1/99;
 -------------
 Structure: 25
 -------------
 Charge =  0 Multiplicity = 1

                         Standard orientation:
 ---------------------------------------------------------------------
 Center     Atomic      Atomic             Coordinates (Angstroms)
 Number     Number       Type             X           Y           Z
 ---------------------------------------------------------------------
      1          1           0       -3.409437   -0.976495   -0.311612
      2          6           0       -2.370940   -0.977645    0.029228
      3          6           0       -1.687036    0.360491   -0.247816
      4          1           0       -1.869130   -1.802318   -0.485957
      5          1           0       -2.373449   -1.207658    1.097543
      6          1           0       -1.699798    0.581036   -1.320942
      7         14           0        0.077961    0.458830    0.332993
      8          1           0       -2.237697    1.173870    0.236597
      9          8           0        0.821639    1.862668   -0.109919
     10          8           0        0.830253   -0.856971   -0.299266
     11          1           0        0.206825    0.455133    1.813112
     12          1           0        0.811105    2.094453   -1.039077
     13          6           0        2.169683   -1.197252   -0.029886
     14          1           0        2.387657   -2.149649   -0.517662
     15          1           0        2.346051   -1.310147    1.045375
     16          1           0        2.861031   -0.440973   -0.414951
 ---------------------------------------------------------------------

 SCF Done:  E(RPBE1PBE) =  -560.061377251     A.U. after   12 cycles

 The electronic state is 1-A.
 Alpha  occ. eigenvalues --  -66.25394 -19.20279 -19.20043 -10.26452 -10.21217
 Alpha  occ. eigenvalues --  -10.20878  -5.33054  -3.66583  -3.66463  -3.66328
 Alpha  occ. eigenvalues --   -1.04468  -1.02317  -0.77965  -0.70494  -0.63791
 Alpha  occ. eigenvalues --   -0.56784  -0.51203  -0.46984  -0.46714  -0.45553
 Alpha  occ. eigenvalues --   -0.43081  -0.40907  -0.38656  -0.38009  -0.35868
 Alpha  occ. eigenvalues --   -0.35500  -0.31908  -0.30644  -0.29498
 Alpha virt. eigenvalues --    0.03106   0.04691   0.05529   0.08281   0.09239
 Alpha virt. eigenvalues --    0.10406   0.11167   0.11587   0.12596   0.13234
 Alpha virt. eigenvalues --    0.14873   0.15073   0.15765   0.17233   0.18027

 Mulliken atomic charges:
              1
     1  H    0.123249
     2  C   -0.377062
     3  C   -0.315944
     4  H    0.135325
     5  H    0.122215
     6  H    0.107794
     7  Si   0.546046
     8  H    0.122359
     9  O   -0.533006
    10  O   -0.338602
    11  H   -0.066217
    12  H    0.318675
    13  C   -0.210648
    14  H    0.128175
    15  H    0.118179
    16  H    0.119461
 Sum of Mulliken atomic charges =   0.00000

 Dipole moment (field-independent basis, Debye):
    X=              0.0075    Y=             -0.1604    Z=             -1.1304  Tot=              1.1418
 Quadrupole moment (field-independent basis, Debye-Ang):
   XX=            -42.4510   YY=            -46.5729   ZZ=            -43.8498
   XY=             -2.6026   XZ=             -1.0539   YZ=             -3.8516

 Normal termination of Gaussian 09 at Fri Jun 29 11:33:33 2018.
