 Gaussian 09, Revision C.01,
 Gaussian 09:  EM64L-G09RevC.01 23-Sep-2011

 --------------------------------------
 #SP PBE1PBE/Def2TZVP geom=connectivity
 --------------------------------------

 99/5=1,9=1/99;
 -------------
 Structure: 23
 -------------
 Charge =  0 Multiplicity = 1

                         Standard orientation:
 ---------------------------------------------------------------------
 Center     Atomic      Atomic             Coordinates (Angstroms)
 Number     Number       Type             X           Y           Z
 ---------------------------------------------------------------------
      1          1           0       -3.395752   -0.988426   -0.315928
      2          6           0       -2.351025   -0.990322    0.005304
      3          6           0       -1.693110    0.371322   -0.214141
      4          1           0       -1.846606   -1.778926   -0.561248
      5          1           0       -2.329561   -1.275372    1.060053
      6          1           0       -1.729787    0.646919   -1.273907
      7         14           0        0.080971    0.468165    0.338566
      8          1           0       -2.246782    1.149447    0.321992
      9          8           0        0.825596    1.860804   -0.135481
     10          8           0        0.816825   -0.861113   -0.286352
     11          1           0        0.232333    0.485013    1.816462
     12          1           0        0.802027    2.080405   -1.068082
     13          6           0        2.157485   -1.205127   -0.031319
     14          1           0        2.363241   -2.165297   -0.508813
     15          1           0        2.350071   -1.302710    1.043028
     16          1           0        2.847755   -0.458129   -0.437880
 ---------------------------------------------------------------------

 SCF Done:  E(RPBE1PBE) =  -560.061238035     A.U. after   12 cycles

 The electronic state is 1-A.
 Alpha  occ. eigenvalues --  -66.25401 -19.20291 -19.20039 -10.26451 -10.21190
 Alpha  occ. eigenvalues --  -10.20882  -5.33060  -3.66590  -3.66470  -3.66334
 Alpha  occ. eigenvalues --   -1.04473  -1.02316  -0.77957  -0.70470  -0.63790
 Alpha  occ. eigenvalues --   -0.56782  -0.51207  -0.46988  -0.46728  -0.45542
 Alpha  occ. eigenvalues --   -0.43004  -0.40918  -0.38691  -0.38012  -0.35804
 Alpha  occ. eigenvalues --   -0.35534  -0.31884  -0.30645  -0.29492
 Alpha virt. eigenvalues --    0.03109   0.04650   0.05524   0.08325   0.09122
 Alpha virt. eigenvalues --    0.10456   0.11195   0.11560   0.12563   0.13225
 Alpha virt. eigenvalues --    0.14902   0.15044   0.15770   0.17364   0.18172

 Mulliken atomic charges:
              1
     1  H    0.122783
     2  C   -0.374871
     3  C   -0.316819
     4  H    0.135335
     5  H    0.121750
     6  H    0.107024
     7  Si   0.545845
     8  H    0.122394
     9  O   -0.532811
    10  O   -0.338583
    11  H   -0.066033
    12  H    0.318779
    13  C   -0.210109
    14  H    0.128064
    15  H    0.118051
    16  H    0.119202
 Sum of Mulliken atomic charges =   0.00000

 Dipole moment (field-independent basis, Debye):
    X=             -0.0117    Y=             -0.1714    Z=             -1.1274  Tot=              1.1404
 Quadrupole moment (field-independent basis, Debye-Ang):
   XX=            -42.5474   YY=            -46.6680   ZZ=            -43.7168
   XY=             -2.6931   XZ=             -1.0708   YZ=             -3.7949

 Normal termination of Gaussian 09 at Fri Jun 29 11:25:12 2018.
