 Gaussian 09, Revision C.01,
 Gaussian 09:  EM64L-G09RevC.01 23-Sep-2011

 --------------------------------------
 #SP PBE1PBE/Def2TZVP geom=connectivity
 --------------------------------------

 99/5=1,9=1/99;
 -------------
 Structure: 22
 -------------
 Charge =  0 Multiplicity = 1

                         Standard orientation:
 ---------------------------------------------------------------------
 Center     Atomic      Atomic             Coordinates (Angstroms)
 Number     Number       Type             X           Y           Z
 ---------------------------------------------------------------------
      1          1           0       -3.388644   -0.995239   -0.318352
      2          6           0       -2.340926   -0.996817   -0.007009
      3          6           0       -1.696081    0.375452   -0.197102
      4          1           0       -1.835606   -1.766276   -0.598532
      5          1           0       -2.307143   -1.308915    1.039731
      6          1           0       -1.745049    0.678104   -1.248960
      7         14           0        0.082343    0.472612    0.341410
      8          1           0       -2.250856    1.134816    0.364200
      9          8           0        0.825727    1.860124   -0.148609
     10          8           0        0.810392   -0.862762   -0.279316
     11          1           0        0.245486    0.499243    1.818157
     12          1           0        0.796025    2.072179   -1.083207
     13          6           0        2.153123   -1.207775   -0.032171
     14          1           0        2.353348   -2.171431   -0.503721
     15          1           0        2.352564   -1.298262    1.040987
     16          1           0        2.841435   -0.464840   -0.448960
 ---------------------------------------------------------------------

 SCF Done:  E(RPBE1PBE) =  -560.061147855     A.U. after   12 cycles

 The electronic state is 1-A.
 Alpha  occ. eigenvalues --  -66.25395 -19.20294 -19.20035 -10.26448 -10.21172
 Alpha  occ. eigenvalues --  -10.20877  -5.33055  -3.66585  -3.66465  -3.66329
 Alpha  occ. eigenvalues --   -1.04455  -1.02306  -0.77947  -0.70480  -0.63784
 Alpha  occ. eigenvalues --   -0.56770  -0.51198  -0.46992  -0.46736  -0.45535
 Alpha  occ. eigenvalues --   -0.42961  -0.40920  -0.38705  -0.38013  -0.35770
 Alpha  occ. eigenvalues --   -0.35549  -0.31878  -0.30656  -0.29484
 Alpha virt. eigenvalues --    0.03115   0.04630   0.05525   0.08337   0.09070
 Alpha virt. eigenvalues --    0.10486   0.11210   0.11552   0.12540   0.13227
 Alpha virt. eigenvalues --    0.14901   0.15023   0.15773   0.17442   0.18262

 Mulliken atomic charges:
              1
     1  H    0.122525
     2  C   -0.373712
     3  C   -0.317325
     4  H    0.135234
     5  H    0.121525
     6  H    0.106646
     7  Si   0.545588
     8  H    0.122382
     9  O   -0.532695
    10  O   -0.338581
    11  H   -0.066081
    12  H    0.318828
    13  C   -0.209905
    14  H    0.128131
    15  H    0.118194
    16  H    0.119247
 Sum of Mulliken atomic charges =   0.00000

 Dipole moment (field-independent basis, Debye):
    X=             -0.0121    Y=             -0.1823    Z=             -1.1265  Tot=              1.1413
 Quadrupole moment (field-independent basis, Debye-Ang):
   XX=            -42.5727   YY=            -46.7229   ZZ=            -43.6494
   XY=             -2.7454   XZ=             -1.0782   YZ=             -3.7651

 Normal termination of Gaussian 09 at Fri Jun 29 11:20:40 2018.
