 Gaussian 09, Revision C.01,
 Gaussian 09:  EM64L-G09RevC.01 23-Sep-2011

 --------------------------------------
 #SP PBE1PBE/Def2TZVP geom=connectivity
 --------------------------------------

 99/5=1,9=1/99;
 -------------
 Structure: 20
 -------------
 Charge =  0 Multiplicity = 1

                         Standard orientation:
 ---------------------------------------------------------------------
 Center     Atomic      Atomic             Coordinates (Angstroms)
 Number     Number       Type             X           Y           Z
 ---------------------------------------------------------------------
      1          1           0       -3.375009   -1.007500   -0.323218
      2          6           0       -2.321526   -1.007978   -0.031976
      3          6           0       -1.701681    0.382631   -0.162678
      4          1           0       -1.816052   -1.737560   -0.671914
      5          1           0       -2.262567   -1.373009    0.996366
      6          1           0       -1.775775    0.738244   -1.196337
      7         14           0        0.085190    0.480995    0.346874
      8          1           0       -2.257028    1.102881    0.447484
      9          8           0        0.826802    1.858319   -0.175520
     10          8           0        0.798346   -0.866522   -0.264707
     11          1           0        0.270494    0.529487    1.819573
     12          1           0        0.781998    2.056007   -1.112729
     13          6           0        2.143123   -1.212132   -0.033186
     14          1           0        2.333181   -2.185041   -0.493333
     15          1           0        2.359374   -1.288149    1.038397
     16          1           0        2.828046   -0.478790   -0.471670
 ---------------------------------------------------------------------

 SCF Done:  E(RPBE1PBE) =  -560.060923039     A.U. after   12 cycles

 The electronic state is 1-A.
 Alpha  occ. eigenvalues --  -66.25400 -19.20294 -19.20046 -10.26465 -10.21147
 Alpha  occ. eigenvalues --  -10.20877  -5.33061  -3.66591  -3.66470  -3.66334
 Alpha  occ. eigenvalues --   -1.04474  -1.02306  -0.77938  -0.70460  -0.63782
 Alpha  occ. eigenvalues --   -0.56756  -0.51208  -0.47011  -0.46743  -0.45527
 Alpha  occ. eigenvalues --   -0.42892  -0.40930  -0.38743  -0.38009  -0.35696
 Alpha  occ. eigenvalues --   -0.35581  -0.31851  -0.30674  -0.29487
 Alpha virt. eigenvalues --    0.03130   0.04578   0.05521   0.08355   0.08970
 Alpha virt. eigenvalues --    0.10538   0.11218   0.11544   0.12487   0.13222
 Alpha virt. eigenvalues --    0.14861   0.14993   0.15765   0.17591   0.18471

 Mulliken atomic charges:
              1
     1  H    0.122076
     2  C   -0.371324
     3  C   -0.318692
     4  H    0.134908
     5  H    0.121146
     6  H    0.106085
     7  Si   0.545420
     8  H    0.122453
     9  O   -0.532576
    10  O   -0.337683
    11  H   -0.065939
    12  H    0.318672
    13  C   -0.209864
    14  H    0.127910
    15  H    0.118135
    16  H    0.119274
 Sum of Mulliken atomic charges =   0.00000

 Dipole moment (field-independent basis, Debye):
    X=             -0.0315    Y=             -0.2010    Z=             -1.1207  Tot=              1.1390
 Quadrupole moment (field-independent basis, Debye-Ang):
   XX=            -42.6622   YY=            -46.8474   ZZ=            -43.5129
   XY=             -2.8399   XZ=             -1.0808   YZ=             -3.6986

 Normal termination of Gaussian 09 at Fri Jun 29 11:13:05 2018.
