 Gaussian 09, Revision C.01,
 Gaussian 09:  EM64L-G09RevC.01 23-Sep-2011

 --------------------------------------
 #SP PBE1PBE/Def2TZVP geom=connectivity
 --------------------------------------

 99/5=1,9=1/99;
 -------------
 Structure: 21
 -------------
 Charge =  0 Multiplicity = 1

                         Standard orientation:
 ---------------------------------------------------------------------
 Center     Atomic      Atomic             Coordinates (Angstroms)
 Number     Number       Type             X           Y           Z
 ---------------------------------------------------------------------
      1          1           0       -3.381858   -1.001177   -0.320783
      2          6           0       -2.331213   -1.002440   -0.019469
      3          6           0       -1.698877    0.379403   -0.179930
      4          1           0       -1.825661   -1.752261   -0.635506
      5          1           0       -2.284941   -1.341255    1.018449
      6          1           0       -1.760309    0.708786   -1.223067
      7         14           0        0.083840    0.476801    0.344149
      8          1           0       -2.254092    1.119519    0.406101
      9          8           0        0.826780    1.858734   -0.162076
     10          8           0        0.803986   -0.863912   -0.271752
     11          1           0        0.258191    0.514765    1.818516
     12          1           0        0.789341    2.064192   -1.097135
     13          6           0        2.147867   -1.210445   -0.033087
     14          1           0        2.342779   -2.178759   -0.499132
     15          1           0        2.355886   -1.293922    1.040436
     16          1           0        2.834119   -0.472788   -0.460426
 ---------------------------------------------------------------------

 SCF Done:  E(RPBE1PBE) =  -560.061041870     A.U. after   12 cycles

 The electronic state is 1-A.
 Alpha  occ. eigenvalues --  -66.25379 -19.20279 -19.20041 -10.26470 -10.21157
 Alpha  occ. eigenvalues --  -10.20872  -5.33043  -3.66573  -3.66452  -3.66316
 Alpha  occ. eigenvalues --   -1.04473  -1.02316  -0.77940  -0.70480  -0.63781
 Alpha  occ. eigenvalues --   -0.56774  -0.51207  -0.47004  -0.46746  -0.45527
 Alpha  occ. eigenvalues --   -0.42927  -0.40922  -0.38724  -0.38008  -0.35733
 Alpha  occ. eigenvalues --   -0.35565  -0.31870  -0.30669  -0.29484
 Alpha virt. eigenvalues --    0.03136   0.04606   0.05523   0.08346   0.09024
 Alpha virt. eigenvalues --    0.10512   0.11218   0.11549   0.12523   0.13231
 Alpha virt. eigenvalues --    0.14884   0.15010   0.15772   0.17521   0.18357

 Mulliken atomic charges:
              1
     1  H    0.122289
     2  C   -0.372532
     3  C   -0.318030
     4  H    0.135058
     5  H    0.121322
     6  H    0.106329
     7  Si   0.545300
     8  H    0.122383
     9  O   -0.532484
    10  O   -0.337713
    11  H   -0.066175
    12  H    0.318569
    13  C   -0.209967
    14  H    0.128083
    15  H    0.118111
    16  H    0.119458
 Sum of Mulliken atomic charges =   0.00000

 Dipole moment (field-independent basis, Debye):
    X=             -0.0184    Y=             -0.1944    Z=             -1.1253  Tot=              1.1421
 Quadrupole moment (field-independent basis, Debye-Ang):
   XX=            -42.6117   YY=            -46.7758   ZZ=            -43.5829
   XY=             -2.7993   XZ=             -1.0842   YZ=             -3.7284

 Normal termination of Gaussian 09 at Fri Jun 29 11:16:57 2018.
