 Gaussian 09, Revision C.01,
 Gaussian 09:  EM64L-G09RevC.01 23-Sep-2011

 --------------------------------------
 #SP PBE1PBE/Def2TZVP geom=connectivity
 --------------------------------------

 99/5=1,9=1/99;
 -------------
 Structure: 26
 -------------
 Charge =  0 Multiplicity = 1

                         Standard orientation:
 ---------------------------------------------------------------------
 Center     Atomic      Atomic             Coordinates (Angstroms)
 Number     Number       Type             X           Y           Z
 ---------------------------------------------------------------------
      1          1           0       -3.416177   -0.970788   -0.309498
      2          6           0       -2.380899   -0.970980    0.040999
      3          6           0       -1.683961    0.354221   -0.264295
      4          1           0       -1.880883   -1.812607   -0.447839
      5          1           0       -2.395041   -1.173044    1.114861
      6          1           0       -1.685119    0.546812   -1.342863
      7         14           0        0.076341    0.454191    0.330320
      8          1           0       -2.232631    1.184129    0.193617
      9          8           0        0.819059    1.862782   -0.097674
     10          8           0        0.837399   -0.854575   -0.306139
     11          1           0        0.194685    0.440561    1.811275
     12          1           0        0.814329    2.101448   -1.025340
     13          6           0        2.176023   -1.192574   -0.028566
     14          1           0        2.400854   -2.140969   -0.521666
     15          1           0        2.344806   -1.312499    1.047633
     16          1           0        2.867758   -0.431377   -0.402997
 ---------------------------------------------------------------------

 SCF Done:  E(RPBE1PBE) =  -560.061427176     A.U. after   12 cycles

 The electronic state is 1-A.
 Alpha  occ. eigenvalues --  -66.25389 -19.20278 -19.20039 -10.26458 -10.21231
 Alpha  occ. eigenvalues --  -10.20876  -5.33050  -3.66578  -3.66459  -3.66324
 Alpha  occ. eigenvalues --   -1.04460  -1.02312  -0.77970  -0.70488  -0.63791
 Alpha  occ. eigenvalues --   -0.56789  -0.51193  -0.46971  -0.46697  -0.45554
 Alpha  occ. eigenvalues --   -0.43117  -0.40900  -0.38642  -0.38005  -0.35902
 Alpha  occ. eigenvalues --   -0.35486  -0.31914  -0.30632  -0.29505
 Alpha virt. eigenvalues --    0.03100   0.04708   0.05529   0.08253   0.09296
 Alpha virt. eigenvalues --    0.10382   0.11148   0.11603   0.12603   0.13236
 Alpha virt. eigenvalues --    0.14841   0.15079   0.15768   0.17182   0.17976

 Mulliken atomic charges:
              1
     1  H    0.123474
     2  C   -0.378144
     3  C   -0.315651
     4  H    0.135278
     5  H    0.122470
     6  H    0.108250
     7  Si   0.546223
     8  H    0.122322
     9  O   -0.533005
    10  O   -0.338688
    11  H   -0.066249
    12  H    0.318792
    13  C   -0.211028
    14  H    0.128236
    15  H    0.118166
    16  H    0.119554
 Sum of Mulliken atomic charges =   0.00000

 Dipole moment (field-independent basis, Debye):
    X=              0.0134    Y=             -0.1493    Z=             -1.1298  Tot=              1.1397
 Quadrupole moment (field-independent basis, Debye-Ang):
   XX=            -42.4124   YY=            -46.5191   ZZ=            -43.9136
   XY=             -2.5515   XZ=             -1.0404   YZ=             -3.8804

 Normal termination of Gaussian 09 at Fri Jun 29 11:38:03 2018.
