 Gaussian 09, Revision C.01,
 Gaussian 09:  EM64L-G09RevC.01 23-Sep-2011

 --------------------------------------
 #SP PBE1PBE/Def2TZVP geom=connectivity
 --------------------------------------

 99/5=1,9=1/99;
 -------------
 Structure: 28
 -------------
 Charge =  0 Multiplicity = 1

                         Standard orientation:
 ---------------------------------------------------------------------
 Center     Atomic      Atomic             Coordinates (Angstroms)
 Number     Number       Type             X           Y           Z
 ---------------------------------------------------------------------
      1          1           0       -3.429595   -0.960230   -0.305451
      2          6           0       -2.400891   -0.957457    0.063884
      3          6           0       -1.677727    0.339444   -0.296902
      4          1           0       -1.905576   -1.830856   -0.371031
      5          1           0       -2.437451   -1.102798    1.146358
      6          1           0       -1.656528    0.475307   -1.383868
      7         14           0        0.073008    0.444236    0.324525
      8          1           0       -2.221314    1.200245    0.106835
      9          8           0        0.811359    1.864500   -0.073571
     10          8           0        0.853320   -0.849740   -0.318038
     11          1           0        0.170072    0.410240    1.806375
     12          1           0        0.817277    2.115831   -0.997507
     13          6           0        2.190111   -1.181585   -0.025985
     14          1           0        2.429242   -2.121936   -0.528127
     15          1           0        2.343702   -1.315167    1.050581
     16          1           0        2.881672   -0.410423   -0.380623
 ---------------------------------------------------------------------

 SCF Done:  E(RPBE1PBE) =  -560.061487088     A.U. after   12 cycles

 The electronic state is 1-A.
 Alpha  occ. eigenvalues --  -66.25390 -19.20269 -19.20038 -10.26456 -10.21262
 Alpha  occ. eigenvalues --  -10.20874  -5.33050  -3.66578  -3.66459  -3.66324
 Alpha  occ. eigenvalues --   -1.04465  -1.02310  -0.77982  -0.70495  -0.63795
 Alpha  occ. eigenvalues --   -0.56790  -0.51190  -0.46969  -0.46680  -0.45568
 Alpha  occ. eigenvalues --   -0.43205  -0.40885  -0.38615  -0.37992  -0.35963
 Alpha  occ. eigenvalues --   -0.35454  -0.31921  -0.30621  -0.29518
 Alpha virt. eigenvalues --    0.03094   0.04735   0.05535   0.08193   0.09415
 Alpha virt. eigenvalues --    0.10344   0.11115   0.11629   0.12613   0.13238
 Alpha virt. eigenvalues --    0.14749   0.15067   0.15796   0.17107   0.17899

 Mulliken atomic charges:
              1
     1  H    0.123924
     2  C   -0.380145
     3  C   -0.315456
     4  H    0.135010
     5  H    0.123069
     6  H    0.109312
     7  Si   0.546830
     8  H    0.122324
     9  O   -0.533203
    10  O   -0.338393
    11  H   -0.066466
    12  H    0.318768
    13  C   -0.211577
    14  H    0.128244
    15  H    0.118174
    16  H    0.119586
 Sum of Mulliken atomic charges =   0.00000

 Dipole moment (field-independent basis, Debye):
    X=              0.0224    Y=             -0.1347    Z=             -1.1309  Tot=              1.1391
 Quadrupole moment (field-independent basis, Debye-Ang):
   XX=            -42.3339   YY=            -46.4280   ZZ=            -44.0405
   XY=             -2.4526   XZ=             -1.0073   YZ=             -3.9340

 Normal termination of Gaussian 09 at Fri Jun 29 11:45:57 2018.
