 Gaussian 09, Revision C.01,
 Gaussian 09:  EM64L-G09RevC.01 23-Sep-2011

 --------------------------------------
 #SP PBE1PBE/Def2TZVP geom=connectivity
 --------------------------------------

 99/5=1,9=1/99;
 -------------
 Structure: 35
 -------------
 Charge =  0 Multiplicity = 1

                         Standard orientation:
 ---------------------------------------------------------------------
 Center     Atomic      Atomic             Coordinates (Angstroms)
 Number     Number       Type             X           Y           Z
 ---------------------------------------------------------------------
      1          1           0       -3.473331   -0.931710   -0.292501
      2          6           0       -2.469278   -0.906000    0.138621
      3          6           0       -1.654218    0.266830   -0.404733
      4          1           0       -1.999753   -1.866619   -0.093909
      5          1           0       -2.576736   -0.844554    1.224386
      6          1           0       -1.562347    0.195931   -1.494199
      7         14           0        0.060636    0.407456    0.303591
      8          1           0       -2.170760    1.211418   -0.203721
      9          8           0        0.762597    1.868552   -0.001157
     10          8           0        0.917203   -0.830537   -0.352377
     11          1           0        0.090428    0.315466    1.786197
     12          1           0        0.803043    2.157968   -0.913753
     13          6           0        2.251049   -1.126671   -0.010963
     14          1           0        2.547726   -2.035318   -0.538700
     15          1           0        2.360073   -1.299405    1.066292
     16          1           0        2.929032   -0.316642   -0.299637
 ---------------------------------------------------------------------

 SCF Done:  E(RPBE1PBE) =  -560.061271355     A.U. after   12 cycles

 The electronic state is 1-A.
 Alpha  occ. eigenvalues --  -66.25384 -19.20258 -19.20042 -10.26454 -10.21347
 Alpha  occ. eigenvalues --  -10.20830  -5.33045  -3.66573  -3.66454  -3.66320
 Alpha  occ. eigenvalues --   -1.04448  -1.02289  -0.78005  -0.70513  -0.63783
 Alpha  occ. eigenvalues --   -0.56793  -0.51163  -0.46908  -0.46622  -0.45591
 Alpha  occ. eigenvalues --   -0.43497  -0.40805  -0.38527  -0.37923  -0.36153
 Alpha  occ. eigenvalues --   -0.35363  -0.31927  -0.30570  -0.29566
 Alpha virt. eigenvalues --    0.03081   0.04789   0.05535   0.07904   0.09748
 Alpha virt. eigenvalues --    0.10353   0.10991   0.11681   0.12574   0.13276
 Alpha virt. eigenvalues --    0.14200   0.14797   0.16078   0.17158   0.17888

 Mulliken atomic charges:
              1
     1  H    0.124968
     2  C   -0.385476
     3  C   -0.317105
     4  H    0.133104
     5  H    0.125300
     6  H    0.113861
     7  Si   0.549315
     8  H    0.121729
     9  O   -0.532330
    10  O   -0.338099
    11  H   -0.067640
    12  H    0.319053
    13  C   -0.213155
    14  H    0.128618
    15  H    0.118130
    16  H    0.119725
 Sum of Mulliken atomic charges =   0.00000

 Dipole moment (field-independent basis, Debye):
    X=              0.0701    Y=             -0.0825    Z=             -1.1344  Tot=              1.1396
 Quadrupole moment (field-independent basis, Debye-Ang):
   XX=            -42.0523   YY=            -46.1756   ZZ=            -44.4376
   XY=             -2.0704   XZ=             -0.8312   YZ=             -4.0910

 Normal termination of Gaussian 09 at Fri Jun 29 12:16:35 2018.
