 Gaussian 09, Revision C.01,
 Gaussian 09:  EM64L-G09RevC.01 23-Sep-2011

 --------------------------------------
 #SP PBE1PBE/Def2TZVP geom=connectivity
 --------------------------------------

 99/5=1,9=1/99;
 -------------
 Structure: 30
 -------------
 Charge =  0 Multiplicity = 1

                         Standard orientation:
 ---------------------------------------------------------------------
 Center     Atomic      Atomic             Coordinates (Angstroms)
 Number     Number       Type             X           Y           Z
 ---------------------------------------------------------------------
      1          1           0       -3.442297   -0.951357   -0.301567
      2          6           0       -2.420423   -0.943756    0.086202
      3          6           0       -1.671217    0.321749   -0.328855
      4          1           0       -1.930823   -1.845949   -0.292815
      5          1           0       -2.478504   -1.031056    1.173959
      6          1           0       -1.628558    0.399567   -1.420884
      7         14           0        0.069549    0.434229    0.318684
      8          1           0       -2.208712    1.210404    0.018797
      9          8           0        0.800281    1.865929   -0.050948
     10          8           0        0.870377   -0.844429   -0.329118
     11          1           0        0.145862    0.382515    1.801350
     12          1           0        0.817284    2.128495   -0.971878
     13          6           0        2.205886   -1.168691   -0.022859
     14          1           0        2.460796   -2.099688   -0.532612
     15          1           0        2.345669   -1.314031    1.054793
     16          1           0        2.894867   -0.385920   -0.357127
 ---------------------------------------------------------------------

 SCF Done:  E(RPBE1PBE) =  -560.061495751     A.U. after   12 cycles

 The electronic state is 1-A.
 Alpha  occ. eigenvalues --  -66.25386 -19.20268 -19.20038 -10.26456 -10.21287
 Alpha  occ. eigenvalues --  -10.20863  -5.33047  -3.66575  -3.66456  -3.66321
 Alpha  occ. eigenvalues --   -1.04463  -1.02306  -0.77989  -0.70503  -0.63792
 Alpha  occ. eigenvalues --   -0.56789  -0.51183  -0.46947  -0.46677  -0.45573
 Alpha  occ. eigenvalues --   -0.43291  -0.40867  -0.38584  -0.37979  -0.36022
 Alpha  occ. eigenvalues --   -0.35428  -0.31932  -0.30602  -0.29528
 Alpha virt. eigenvalues --    0.03086   0.04759   0.05537   0.08121   0.09528
 Alpha virt. eigenvalues --    0.10322   0.11083   0.11656   0.12610   0.13246
 Alpha virt. eigenvalues --    0.14616   0.15013   0.15853   0.17086   0.17855

 Mulliken atomic charges:
              1
     1  H    0.124293
     2  C   -0.381963
     3  C   -0.315611
     4  H    0.134582
     5  H    0.123703
     6  H    0.110473
     7  Si   0.547400
     8  H    0.122266
     9  O   -0.533036
    10  O   -0.338236
    11  H   -0.066739
    12  H    0.318879
    13  C   -0.212142
    14  H    0.128447
    15  H    0.118077
    16  H    0.119606
 Sum of Mulliken atomic charges =   0.00000

 Dipole moment (field-independent basis, Debye):
    X=              0.0375    Y=             -0.1205    Z=             -1.1330  Tot=              1.1400
 Quadrupole moment (field-independent basis, Debye-Ang):
   XX=            -42.2515   YY=            -46.3450   ZZ=            -44.1624
   XY=             -2.3481   XZ=             -0.9683   YZ=             -3.9822

 Normal termination of Gaussian 09 at Fri Jun 29 11:57:41 2018.
