 Gaussian 09, Revision C.01,
 Gaussian 09:  EM64L-G09RevC.01 23-Sep-2011

 --------------------------------------
 #SP PBE1PBE/Def2TZVP geom=connectivity
 --------------------------------------

 99/5=1,9=1/99;
 -------------
 Structure: 33
 -------------
 Charge =  0 Multiplicity = 1

                         Standard orientation:
 ---------------------------------------------------------------------
 Center     Atomic      Atomic             Coordinates (Angstroms)
 Number     Number       Type             X           Y           Z
 ---------------------------------------------------------------------
      1          1           0       -3.461234   -0.939096   -0.295964
      2          6           0       -2.449906   -0.921720    0.118237
      3          6           0       -1.661296    0.290628   -0.375110
      4          1           0       -1.971430   -1.861353   -0.174104
      5          1           0       -2.538300   -0.920404    1.207455
      6          1           0       -1.588421    0.279842   -1.468259
      7         14           0        0.064129    0.418378    0.309591
      8          1           0       -2.187132    1.215254   -0.114278
      9          8           0        0.779321    1.867387   -0.019700
     10          8           0        0.897971   -0.836078   -0.343758
     11          1           0        0.111979    0.341659    1.792460
     12          1           0        0.811385    2.146827   -0.935663
     13          6           0        2.232389   -1.144662   -0.016020
     14          1           0        2.511614   -2.062369   -0.537899
     15          1           0        2.353105   -1.307387    1.060332
     16          1           0        2.915175   -0.346221   -0.323337
 ---------------------------------------------------------------------

 SCF Done:  E(RPBE1PBE) =  -560.061401575     A.U. after   12 cycles

 The electronic state is 1-A.
 Alpha  occ. eigenvalues --  -66.25378 -19.20261 -19.20035 -10.26441 -10.21323
 Alpha  occ. eigenvalues --  -10.20844  -5.33039  -3.66567  -3.66448  -3.66314
 Alpha  occ. eigenvalues --   -1.04451  -1.02294  -0.77999  -0.70519  -0.63787
 Alpha  occ. eigenvalues --   -0.56793  -0.51171  -0.46936  -0.46637  -0.45588
 Alpha  occ. eigenvalues --   -0.43414  -0.40831  -0.38549  -0.37948  -0.36103
 Alpha  occ. eigenvalues --   -0.35388  -0.31928  -0.30583  -0.29549
 Alpha virt. eigenvalues --    0.03081   0.04782   0.05543   0.07997   0.09676
 Alpha virt. eigenvalues --    0.10326   0.11027   0.11682   0.12591   0.13264
 Alpha virt. eigenvalues --    0.14382   0.14890   0.15983   0.17122   0.17856

 Mulliken atomic charges:
              1
     1  H    0.124741
     2  C   -0.384276
     3  C   -0.316402
     4  H    0.133748
     5  H    0.124682
     6  H    0.112439
     7  Si   0.548493
     8  H    0.122040
     9  O   -0.532642
    10  O   -0.338139
    11  H   -0.067364
    12  H    0.319016
    13  C   -0.212701
    14  H    0.128462
    15  H    0.118239
    16  H    0.119665
 Sum of Mulliken atomic charges =   0.00000

 Dipole moment (field-independent basis, Debye):
    X=              0.0588    Y=             -0.0967    Z=             -1.1347  Tot=              1.1403
 Quadrupole moment (field-independent basis, Debye-Ang):
   XX=            -42.1242   YY=            -46.2339   ZZ=            -44.3312
   XY=             -2.1820   XZ=             -0.8915   YZ=             -4.0538

 Normal termination of Gaussian 09 at Fri Jun 29 12:08:54 2018.
