 Gaussian 09, Revision C.01,
 Gaussian 09:  EM64L-G09RevC.01 23-Sep-2011

 --------------------------------------
 #SP PBE1PBE/Def2TZVP geom=connectivity
 --------------------------------------

 99/5=1,9=1/99;
 -------------
 Structure: 37
 -------------
 Charge =  0 Multiplicity = 1

                         Standard orientation:
 ---------------------------------------------------------------------
 Center     Atomic      Atomic             Coordinates (Angstroms)
 Number     Number       Type             X           Y           Z
 ---------------------------------------------------------------------
      1          1           0       -3.485374   -0.924261   -0.289246
      2          6           0       -2.488695   -0.889065    0.158015
      3          6           0       -1.647009    0.241060   -0.433140
      4          1           0       -2.029499   -1.867328   -0.013606
      5          1           0       -2.614087   -0.767173    1.236732
      6          1           0       -1.537275    0.109744   -1.515321
      7         14           0        0.057172    0.396212    0.297561
      8          1           0       -2.152900    1.202255   -0.292971
      9          8           0        0.744743    1.868014    0.015619
     10          8           0        0.937058   -0.823868   -0.359952
     11          1           0        0.069506    0.290311    1.778878
     12          1           0        0.792071    2.168266   -0.893035
     13          6           0        2.270316   -1.107068   -0.004736
     14          1           0        2.585029   -2.006394   -0.537522
     15          1           0        2.368186   -1.289116    1.072026
     16          1           0        2.941862   -0.286007   -0.277958
 ---------------------------------------------------------------------

 SCF Done:  E(RPBE1PBE) =  -560.061099560     A.U. after   12 cycles

 The electronic state is 1-A.
 Alpha  occ. eigenvalues --  -66.25365 -19.20245 -19.20039 -10.26453 -10.21365
 Alpha  occ. eigenvalues --  -10.20807  -5.33030  -3.66557  -3.66438  -3.66305
 Alpha  occ. eigenvalues --   -1.04449  -1.02289  -0.78006  -0.70522  -0.63774
 Alpha  occ. eigenvalues --   -0.56808  -0.51154  -0.46897  -0.46603  -0.45598
 Alpha  occ. eigenvalues --   -0.43580  -0.40772  -0.38514  -0.37895  -0.36194
 Alpha  occ. eigenvalues --   -0.35341  -0.31920  -0.30555  -0.29583
 Alpha virt. eigenvalues --    0.03092   0.04796   0.05531   0.07816   0.09801
 Alpha virt. eigenvalues --    0.10402   0.10962   0.11674   0.12567   0.13297
 Alpha virt. eigenvalues --    0.14030   0.14715   0.16181   0.17198   0.17962

 Mulliken atomic charges:
              1
     1  H    0.125108
     2  C   -0.386316
     3  C   -0.318076
     4  H    0.132386
     5  H    0.125834
     6  H    0.115323
     7  Si   0.549915
     8  H    0.121181
     9  O   -0.531760
    10  O   -0.337970
    11  H   -0.068079
    12  H    0.319083
    13  C   -0.213225
    14  H    0.128671
    15  H    0.118169
    16  H    0.119757
 Sum of Mulliken atomic charges =   0.00000

 Dipole moment (field-independent basis, Debye):
    X=              0.0836    Y=             -0.0675    Z=             -1.1326  Tot=              1.1377
 Quadrupole moment (field-independent basis, Debye-Ang):
   XX=            -41.9840   YY=            -46.1006   ZZ=            -44.5345
   XY=             -1.9632   XZ=             -0.7637   YZ=             -4.1276

 Normal termination of Gaussian 09 at Fri Jun 29 12:24:15 2018.
