 Gaussian 09, Revision C.01,
 Gaussian 09:  EM64L-G09RevC.01 23-Sep-2011

 --------------------------------------
 #SP PBE1PBE/Def2TZVP geom=connectivity
 --------------------------------------

 99/5=1,9=1/99;
 ------------
 Structure: 3
 ------------
 Charge =  0 Multiplicity = 1

                         Standard orientation:
 ---------------------------------------------------------------------
 Center     Atomic      Atomic             Coordinates (Angstroms)
 Number     Number       Type             X           Y           Z
 ---------------------------------------------------------------------
      1          1           0       -3.251143   -1.166881   -0.366968
      2          6           0       -2.166354   -1.090349   -0.257317
      3          6           0       -1.740270    0.321137    0.144235
      4          1           0       -1.729157   -1.387309   -1.215434
      5          1           0       -1.856498   -1.825353    0.489656
      6          1           0       -2.064932    1.047082   -0.609424
      7         14           0        0.092266    0.533240    0.387235
      8          1           0       -2.231132    0.612639    1.078874
      9          8           0        0.698900    1.839368   -0.415507
     10          8           0        0.776014   -0.869118   -0.125298
     11          1           0        0.468017    0.793571    1.801126
     12          1           0        0.523393    1.902420   -1.354753
     13          6           0        2.152656   -1.147328   -0.033797
     14          1           0        2.321046   -2.170393   -0.377590
     15          1           0        2.511100   -1.066057    0.998464
     16          1           0        2.742077   -0.467829   -0.657516
 ---------------------------------------------------------------------

 SCF Done:  E(RPBE1PBE) =  -560.058728602     A.U. after   12 cycles

 The electronic state is 1-A.
 Alpha  occ. eigenvalues --  -66.25395 -19.20214 -19.20053 -10.26458 -10.21003
 Alpha  occ. eigenvalues --  -10.20774  -5.33062  -3.66594  -3.66474  -3.66331
 Alpha  occ. eigenvalues --   -1.04502  -1.02311  -0.77859  -0.70447  -0.63741
 Alpha  occ. eigenvalues --   -0.56711  -0.51236  -0.47054  -0.46816  -0.45495
 Alpha  occ. eigenvalues --   -0.42537  -0.40873  -0.39004  -0.37863  -0.35976
 Alpha  occ. eigenvalues --   -0.35069  -0.31690  -0.30628  -0.29559
 Alpha virt. eigenvalues --    0.03109   0.04256   0.05665   0.08264   0.08694
 Alpha virt. eigenvalues --    0.10573   0.11054   0.11636   0.12453   0.13207
 Alpha virt. eigenvalues --    0.14146   0.14701   0.15313   0.18402   0.19522

 Mulliken atomic charges:
              1
     1  H    0.120190
     2  C   -0.342899
     3  C   -0.350656
     4  H    0.121675
     5  H    0.120977
     6  H    0.112083
     7  Si   0.551586
     8  H    0.124452
     9  O   -0.528985
    10  O   -0.328044
    11  H   -0.066363
    12  H    0.317371
    13  C   -0.216543
    14  H    0.127658
    15  H    0.118096
    16  H    0.119403
 Sum of Mulliken atomic charges =   0.00000

 Dipole moment (field-independent basis, Debye):
    X=             -0.1446    Y=             -0.3724    Z=             -1.0488  Tot=              1.1223
 Quadrupole moment (field-independent basis, Debye-Ang):
   XX=            -42.8639   YY=            -48.0188   ZZ=            -42.5499
   XY=             -3.2897   XZ=             -0.7442   YZ=             -3.0500

 Normal termination of Gaussian 09 at Fri Jun 29 12:37:36 2018.
