 Gaussian 09, Revision C.01,
 Gaussian 09:  EM64L-G09RevC.01 23-Sep-2011

 --------------------------------------
 #SP PBE1PBE/Def2TZVP geom=connectivity
 --------------------------------------

 99/5=1,9=1/99;
 -------------
 Structure: 34
 -------------
 Charge =  0 Multiplicity = 1

                         Standard orientation:
 ---------------------------------------------------------------------
 Center     Atomic      Atomic             Coordinates (Angstroms)
 Number     Number       Type             X           Y           Z
 ---------------------------------------------------------------------
      1          1           0       -3.467097   -0.935590   -0.294091
      2          6           0       -2.459371   -0.914147    0.128611
      3          6           0       -1.657693    0.278964   -0.389929
      4          1           0       -1.985129   -1.864619   -0.134091
      5          1           0       -2.557379   -0.882934    1.216559
      6          1           0       -1.575237    0.238286   -1.481693
      7         14           0        0.062489    0.413021    0.306655
      8          1           0       -2.179122    1.213916   -0.158748
      9          8           0        0.770837    1.868127   -0.010435
     10          8           0        0.907370   -0.833618   -0.348855
     11          1           0        0.100758    0.329036    1.789225
     12          1           0        0.807256    2.152818   -0.923622
     13          6           0        2.241492   -1.135660   -0.012994
     14          1           0        2.530055   -2.048770   -0.538252
     15          1           0        2.356529   -1.303467    1.063270
     16          1           0        2.922297   -0.331977   -0.311534
 ---------------------------------------------------------------------

 SCF Done:  E(RPBE1PBE) =  -560.061341794     A.U. after   12 cycles

 The electronic state is 1-A.
 Alpha  occ. eigenvalues --  -66.25384 -19.20253 -19.20043 -10.26444 -10.21334
 Alpha  occ. eigenvalues --  -10.20834  -5.33045  -3.66572  -3.66454  -3.66320
 Alpha  occ. eigenvalues --   -1.04448  -1.02309  -0.78000  -0.70514  -0.63785
 Alpha  occ. eigenvalues --   -0.56813  -0.51171  -0.46923  -0.46618  -0.45590
 Alpha  occ. eigenvalues --   -0.43451  -0.40818  -0.38546  -0.37937  -0.36129
 Alpha  occ. eigenvalues --   -0.35375  -0.31931  -0.30576  -0.29562
 Alpha virt. eigenvalues --    0.03092   0.04788   0.05538   0.07949   0.09714
 Alpha virt. eigenvalues --    0.10341   0.11011   0.11679   0.12584   0.13271
 Alpha virt. eigenvalues --    0.14294   0.14846   0.16027   0.17145   0.17871

 Mulliken atomic charges:
              1
     1  H    0.124854
     2  C   -0.384935
     3  C   -0.316738
     4  H    0.133447
     5  H    0.124970
     6  H    0.113138
     7  Si   0.549118
     8  H    0.121878
     9  O   -0.532301
    10  O   -0.338350
    11  H   -0.067394
    12  H    0.318859
    13  C   -0.213043
    14  H    0.128512
    15  H    0.118284
    16  H    0.119702
 Sum of Mulliken atomic charges =   0.00000

 Dipole moment (field-independent basis, Debye):
    X=              0.0664    Y=             -0.0876    Z=             -1.1300  Tot=              1.1354
 Quadrupole moment (field-independent basis, Debye-Ang):
   XX=            -42.0858   YY=            -46.2044   ZZ=            -44.3843
   XY=             -2.1249   XZ=             -0.8575   YZ=             -4.0737

 Normal termination of Gaussian 09 at Fri Jun 29 12:12:45 2018.
