 Gaussian 09, Revision C.01,
 Gaussian 09:  EM64L-G09RevC.01 23-Sep-2011

 --------------------------------------
 #SP PBE1PBE/Def2TZVP geom=connectivity
 --------------------------------------

 99/5=1,9=1/99;
 -------------
 Structure: 32
 -------------
 Charge =  0 Multiplicity = 1

                         Standard orientation:
 ---------------------------------------------------------------------
 Center     Atomic      Atomic             Coordinates (Angstroms)
 Number     Number       Type             X           Y           Z
 ---------------------------------------------------------------------
      1          1           0       -3.454831   -0.943166   -0.297707
      2          6           0       -2.439943   -0.929349    0.107830
      3          6           0       -1.664516    0.301488   -0.359973
      4          1           0       -1.957432   -1.857312   -0.213699
      5          1           0       -2.518476   -0.957669    1.197436
      6          1           0       -1.601470    0.320330   -1.453624
      7         14           0        0.066081    0.423711    0.312573
      8          1           0       -2.194562    1.214937   -0.069921
      9          8           0        0.786245    1.866676   -0.029547
     10          8           0        0.888687   -0.838578   -0.339287
     11          1           0        0.122787    0.354832    1.795513
     12          1           0        0.814442    2.140717   -0.947651
     13          6           0        2.222940   -1.152534   -0.018372
     14          1           0        2.494380   -2.075928   -0.536840
     15          1           0        2.350425   -1.310602    1.058690
     16          1           0        2.909257   -0.360505   -0.334465
 ---------------------------------------------------------------------

 SCF Done:  E(RPBE1PBE) =  -560.061446333     A.U. after   12 cycles

 The electronic state is 1-A.
 Alpha  occ. eigenvalues --  -66.25373 -19.20272 -19.20044 -10.26461 -10.21309
 Alpha  occ. eigenvalues --  -10.20846  -5.33037  -3.66565  -3.66445  -3.66311
 Alpha  occ. eigenvalues --   -1.04474  -1.02305  -0.77993  -0.70504  -0.63786
 Alpha  occ. eigenvalues --   -0.56797  -0.51189  -0.46945  -0.46639  -0.45580
 Alpha  occ. eigenvalues --   -0.43372  -0.40845  -0.38556  -0.37962  -0.36077
 Alpha  occ. eigenvalues --   -0.35402  -0.31928  -0.30592  -0.29542
 Alpha virt. eigenvalues --    0.03076   0.04778   0.05542   0.08037   0.09632
 Alpha virt. eigenvalues --    0.10318   0.11039   0.11676   0.12601   0.13252
 Alpha virt. eigenvalues --    0.14461   0.14940   0.15938   0.17111   0.17850

 Mulliken atomic charges:
              1
     1  H    0.124595
     2  C   -0.383576
     3  C   -0.316150
     4  H    0.134024
     5  H    0.124355
     6  H    0.111721
     7  Si   0.548029
     8  H    0.122121
     9  O   -0.532665
    10  O   -0.337775
    11  H   -0.067163
    12  H    0.319122
    13  C   -0.212804
    14  H    0.128333
    15  H    0.118178
    16  H    0.119657
 Sum of Mulliken atomic charges =   0.00000

 Dipole moment (field-independent basis, Debye):
    X=              0.0542    Y=             -0.1012    Z=             -1.1354  Tot=              1.1412
 Quadrupole moment (field-independent basis, Debye-Ang):
   XX=            -42.1707   YY=            -46.2695   ZZ=            -44.2782
   XY=             -2.2266   XZ=             -0.9205   YZ=             -4.0335

 Normal termination of Gaussian 09 at Fri Jun 29 12:05:38 2018.
