 Gaussian 09, Revision C.01,
 Gaussian 09:  EM64L-G09RevC.01 23-Sep-2011

 --------------------------------------
 #SP PBE1PBE/Def2TZVP geom=connectivity
 --------------------------------------

 99/5=1,9=1/99;
 -------------
 Structure: 38
 -------------
 Charge =  0 Multiplicity = 1

                         Standard orientation:
 ---------------------------------------------------------------------
 Center     Atomic      Atomic             Coordinates (Angstroms)
 Number     Number       Type             X           Y           Z
 ---------------------------------------------------------------------
      1          1           0       -3.491277   -0.921176   -0.287587
      2          6           0       -2.498343   -0.880569    0.167475
      3          6           0       -1.643389    0.226940   -0.446988
      4          1           0       -2.044698   -1.866360    0.026991
      5          1           0       -2.632335   -0.728083    1.241255
      6          1           0       -1.525092    0.065047   -1.524113
      7         14           0        0.055371    0.390365    0.294450
      8          1           0       -2.143572    1.195126   -0.337893
      9          8           0        0.734467    1.868826    0.023398
     10          8           0        0.947911   -0.820620   -0.363270
     11          1           0        0.060225    0.278309    1.775812
     12          1           0        0.784904    2.171671   -0.884679
     13          6           0        2.280452   -1.096348   -0.001311
     14          1           0        2.604929   -1.991785   -0.535734
     15          1           0        2.372895   -1.283318    1.074647
     16          1           0        2.947483   -0.270333   -0.267079
 ---------------------------------------------------------------------

 SCF Done:  E(RPBE1PBE) =  -560.060999200     A.U. after   12 cycles

 The electronic state is 1-A.
 Alpha  occ. eigenvalues --  -66.25377 -19.20245 -19.20044 -10.26440 -10.21380
 Alpha  occ. eigenvalues --  -10.20807  -5.33041  -3.66567  -3.66449  -3.66316
 Alpha  occ. eigenvalues --   -1.04454  -1.02279  -0.78014  -0.70530  -0.63776
 Alpha  occ. eigenvalues --   -0.56787  -0.51152  -0.46907  -0.46596  -0.45608
 Alpha  occ. eigenvalues --   -0.43631  -0.40762  -0.38504  -0.37882  -0.36213
 Alpha  occ. eigenvalues --   -0.35328  -0.31909  -0.30555  -0.29597
 Alpha virt. eigenvalues --    0.03090   0.04792   0.05524   0.07773   0.09814
 Alpha virt. eigenvalues --    0.10427   0.10946   0.11660   0.12556   0.13315
 Alpha virt. eigenvalues --    0.13943   0.14678   0.16225   0.17198   0.18007

 Mulliken atomic charges:
              1
     1  H    0.125182
     2  C   -0.386606
     3  C   -0.318534
     4  H    0.132037
     5  H    0.126109
     6  H    0.116128
     7  Si   0.549988
     8  H    0.120951
     9  O   -0.531575
    10  O   -0.338058
    11  H   -0.068160
    12  H    0.319074
    13  C   -0.213024
    14  H    0.128526
    15  H    0.118135
    16  H    0.119828
 Sum of Mulliken atomic charges =   0.00000

 Dipole moment (field-independent basis, Debye):
    X=              0.0848    Y=             -0.0673    Z=             -1.1333  Tot=              1.1385
 Quadrupole moment (field-independent basis, Debye-Ang):
   XX=            -41.9498   YY=            -46.0958   ZZ=            -44.5784
   XY=             -1.9106   XZ=             -0.7263   YZ=             -4.1461

 Normal termination of Gaussian 09 at Fri Jun 29 12:28:35 2018.
