 Gaussian 09, Revision C.01,
 Gaussian 09:  EM64L-G09RevC.01 23-Sep-2011

 --------------------------------------
 #SP PBE1PBE/Def2TZVP geom=connectivity
 --------------------------------------

 99/5=1,9=1/99;
 -------------
 Structure: 31
 -------------
 Charge =  0 Multiplicity = 1

                         Standard orientation:
 ---------------------------------------------------------------------
 Center     Atomic      Atomic             Coordinates (Angstroms)
 Number     Number       Type             X           Y           Z
 ---------------------------------------------------------------------
      1          1           0       -3.448518   -0.947740   -0.299546
      2          6           0       -2.430127   -0.936991    0.097208
      3          6           0       -1.668043    0.311686   -0.344514
      4          1           0       -1.943736   -1.852399   -0.253175
      5          1           0       -2.498575   -0.994832    1.186326
      6          1           0       -1.615046    0.360042   -1.437791
      7         14           0        0.067631    0.429143    0.315688
      8          1           0       -2.202143    1.213060   -0.025562
      9          8           0        0.793208    1.866577   -0.040196
     10          8           0        0.879626   -0.841692   -0.334653
     11          1           0        0.134427    0.369392    1.798768
     12          1           0        0.815885    2.135607   -0.959698
     13          6           0        2.214856   -1.160923   -0.020453
     14          1           0        2.477648   -2.087794   -0.534890
     15          1           0        2.348512   -1.311824    1.056562
     16          1           0        2.901917   -0.373230   -0.345271
 ---------------------------------------------------------------------

 SCF Done:  E(RPBE1PBE) =  -560.061479438     A.U. after   12 cycles

 The electronic state is 1-A.
 Alpha  occ. eigenvalues --  -66.25386 -19.20269 -19.20036 -10.26448 -10.21299
 Alpha  occ. eigenvalues --  -10.20856  -5.33046  -3.66574  -3.66455  -3.66321
 Alpha  occ. eigenvalues --   -1.04445  -1.02293  -0.77992  -0.70504  -0.63790
 Alpha  occ. eigenvalues --   -0.56792  -0.51176  -0.46937  -0.46653  -0.45576
 Alpha  occ. eigenvalues --   -0.43327  -0.40852  -0.38572  -0.37969  -0.36051
 Alpha  occ. eigenvalues --   -0.35415  -0.31929  -0.30591  -0.29536
 Alpha virt. eigenvalues --    0.03080   0.04767   0.05539   0.08080   0.09579
 Alpha virt. eigenvalues --    0.10317   0.11060   0.11669   0.12601   0.13251
 Alpha virt. eigenvalues --    0.14542   0.14977   0.15892   0.17093   0.17851

 Mulliken atomic charges:
              1
     1  H    0.124449
     2  C   -0.382813
     3  C   -0.315795
     4  H    0.134344
     5  H    0.124023
     6  H    0.111114
     7  Si   0.547873
     8  H    0.122210
     9  O   -0.532981
    10  O   -0.338488
    11  H   -0.066879
    12  H    0.319041
    13  C   -0.212369
    14  H    0.128440
    15  H    0.118173
    16  H    0.119658
 Sum of Mulliken atomic charges =   0.00000

 Dipole moment (field-independent basis, Debye):
    X=              0.0457    Y=             -0.1093    Z=             -1.1325  Tot=              1.1387
 Quadrupole moment (field-independent basis, Debye-Ang):
   XX=            -42.2049   YY=            -46.3034   ZZ=            -44.2203
   XY=             -2.2876   XZ=             -0.9412   YZ=             -4.0106

 Normal termination of Gaussian 09 at Fri Jun 29 12:01:35 2018.
