 Gaussian 09, Revision C.01,
 Gaussian 09:  EM64L-G09RevC.01 23-Sep-2011

 --------------------------------------
 #SP PBE1PBE/Def2TZVP geom=connectivity
 --------------------------------------

 99/5=1,9=1/99;
 -------------
 Structure: 39
 -------------
 Charge =  0 Multiplicity = 1

                         Standard orientation:
 ---------------------------------------------------------------------
 Center     Atomic      Atomic             Coordinates (Angstroms)
 Number     Number       Type             X           Y           Z
 ---------------------------------------------------------------------
      1          1           0       -3.497048   -0.917815   -0.286027
      2          6           0       -2.507871   -0.871603    0.176621
      3          6           0       -1.639635    0.212630   -0.460318
      4          1           0       -2.060107   -1.864009    0.067304
      5          1           0       -2.650164   -0.688720    1.244571
      6          1           0       -1.513074    0.020361   -1.531493
      7         14           0        0.053697    0.384587    0.291535
      8          1           0       -2.133785    1.186898   -0.382311
      9          8           0        0.724182    1.868656    0.030378
     10          8           0        0.957953   -0.817327   -0.366522
     11          1           0        0.050792    0.265568    1.772016
     12          1           0        0.777720    2.176475   -0.875559
     13          6           0        2.290852   -1.085778    0.002174
     14          1           0        2.624186   -1.976253   -0.534162
     15          1           0        2.378755   -1.275757    1.078238
     16          1           0        2.953806   -0.253097   -0.255778
 ---------------------------------------------------------------------

 SCF Done:  E(RPBE1PBE) =  -560.060894193     A.U. after   12 cycles

 The electronic state is 1-A.
 Alpha  occ. eigenvalues --  -66.25371 -19.20236 -19.20042 -10.26450 -10.21387
 Alpha  occ. eigenvalues --  -10.20794  -5.33035  -3.66562  -3.66444  -3.66310
 Alpha  occ. eigenvalues --   -1.04439  -1.02275  -0.78012  -0.70532  -0.63769
 Alpha  occ. eigenvalues --   -0.56796  -0.51142  -0.46882  -0.46589  -0.45606
 Alpha  occ. eigenvalues --   -0.43668  -0.40739  -0.38503  -0.37864  -0.36232
 Alpha  occ. eigenvalues --   -0.35318  -0.31911  -0.30545  -0.29604
 Alpha virt. eigenvalues --    0.03099   0.04792   0.05519   0.07726   0.09828
 Alpha virt. eigenvalues --    0.10456   0.10937   0.11649   0.12552   0.13324
 Alpha virt. eigenvalues --    0.13862   0.14641   0.16272   0.17210   0.18063

 Mulliken atomic charges:
              1
     1  H    0.125205
     2  C   -0.386815
     3  C   -0.318988
     4  H    0.131680
     5  H    0.126299
     6  H    0.116892
     7  Si   0.550356
     8  H    0.120533
     9  O   -0.531418
    10  O   -0.338225
    11  H   -0.068295
    12  H    0.319064
    13  C   -0.213059
    14  H    0.128713
    15  H    0.118190
    16  H    0.119866
 Sum of Mulliken atomic charges =   0.00000

 Dipole moment (field-independent basis, Debye):
    X=              0.0936    Y=             -0.0606    Z=             -1.1304  Tot=              1.1359
 Quadrupole moment (field-independent basis, Debye-Ang):
   XX=            -41.9139   YY=            -46.0625   ZZ=            -44.6219
   XY=             -1.8583   XZ=             -0.6861   YZ=             -4.1589

 Normal termination of Gaussian 09 at Fri Jun 29 12:32:47 2018.
