 Gaussian 09, Revision C.01,
 Gaussian 09:  EM64L-G09RevC.01 23-Sep-2011

 --------------------------------------
 #SP PBE1PBE/Def2TZVP geom=connectivity
 --------------------------------------

 99/5=1,9=1/99;
 -------------
 Structure: 36
 -------------
 Charge =  0 Multiplicity = 1

                         Standard orientation:
 ---------------------------------------------------------------------
 Center     Atomic      Atomic             Coordinates (Angstroms)
 Number     Number       Type             X           Y           Z
 ---------------------------------------------------------------------
      1          1           0       -3.479453   -0.927950   -0.290809
      2          6           0       -2.479068   -0.897667    0.148466
      3          6           0       -1.650693    0.254187   -0.419082
      4          1           0       -2.014566   -1.867543   -0.053751
      5          1           0       -2.595617   -0.806030    1.231161
      6          1           0       -1.549767    0.153110   -1.505360
      7         14           0        0.058851    0.401826    0.300562
      8          1           0       -2.162049    1.207517   -0.248359
      9          8           0        0.753875    1.868505    0.007535
     10          8           0        0.927669   -0.827417   -0.356669
     11          1           0        0.079805    0.302754    1.782444
     12          1           0        0.797516    2.163297   -0.903418
     13          6           0        2.260234   -1.116852   -0.007404
     14          1           0        2.566632   -2.021199   -0.538332
     15          1           0        2.363325   -1.294227    1.068883
     16          1           0        2.935067   -0.302009   -0.289135
 ---------------------------------------------------------------------

 SCF Done:  E(RPBE1PBE) =  -560.061189251     A.U. after   12 cycles

 The electronic state is 1-A.
 Alpha  occ. eigenvalues --  -66.25386 -19.20257 -19.20038 -10.26437 -10.21360
 Alpha  occ. eigenvalues --  -10.20825  -5.33047  -3.66574  -3.66456  -3.66323
 Alpha  occ. eigenvalues --   -1.04456  -1.02289  -0.78011  -0.70507  -0.63783
 Alpha  occ. eigenvalues --   -0.56798  -0.51162  -0.46916  -0.46604  -0.45603
 Alpha  occ. eigenvalues --   -0.43544  -0.40793  -0.38526  -0.37910  -0.36175
 Alpha  occ. eigenvalues --   -0.35350  -0.31913  -0.30557  -0.29580
 Alpha virt. eigenvalues --    0.03081   0.04790   0.05532   0.07865   0.09775
 Alpha virt. eigenvalues --    0.10374   0.10972   0.11674   0.12569   0.13288
 Alpha virt. eigenvalues --    0.14116   0.14761   0.16127   0.17174   0.17925

 Mulliken atomic charges:
              1
     1  H    0.125067
     2  C   -0.385960
     3  C   -0.317592
     4  H    0.132775
     5  H    0.125588
     6  H    0.114629
     7  Si   0.549727
     8  H    0.121523
     9  O   -0.532077
    10  O   -0.338211
    11  H   -0.067734
    12  H    0.319122
    13  C   -0.213014
    14  H    0.128418
    15  H    0.118110
    16  H    0.119628
 Sum of Mulliken atomic charges =   0.00000

 Dipole moment (field-independent basis, Debye):
    X=              0.0699    Y=             -0.0728    Z=             -1.1319  Tot=              1.1364
 Quadrupole moment (field-independent basis, Debye-Ang):
   XX=            -42.0298   YY=            -46.1448   ZZ=            -44.4830
   XY=             -2.0111   XZ=             -0.7958   YZ=             -4.1126

 Normal termination of Gaussian 09 at Fri Jun 29 12:19:57 2018.
