 Gaussian 09, Revision C.01,
 Gaussian 09:  EM64L-G09RevC.01 23-Sep-2011

 --------------------------------------
 #SP PBE1PBE/Def2TZVP geom=connectivity
 --------------------------------------

 99/5=1,9=1/99;
 -------------
 Structure: 48
 -------------
 Charge =  0 Multiplicity = 1

                         Standard orientation:
 ---------------------------------------------------------------------
 Center     Atomic      Atomic             Coordinates (Angstroms)
 Number     Number       Type             X           Y           Z
 ---------------------------------------------------------------------
      1          1           0       -3.545179   -0.890584   -0.272120
      2          6           0       -2.590593   -0.778462    0.248306
      3          6           0       -1.603033    0.058942   -0.563214
      4          1           0       -2.209319   -1.787500    0.432113
      5          1           0       -2.794694   -0.320036    1.219078
      6          1           0       -1.415035   -0.408553   -1.536100
      7         14           0        0.040663    0.330160    0.265597
      8          1           0       -2.029547    1.044840   -0.776667
      9          8           0        0.613609    1.863937    0.066649
     10          8           0        1.055093   -0.788123   -0.379691
     11          1           0       -0.016432    0.173552    1.741892
     12          1           0        0.683430    2.197237   -0.828394
     13          6           0        2.386935   -0.971433    0.041658
     14          1           0        2.805239   -1.822136   -0.500329
     15          1           0        2.443577   -1.182069    1.115153
     16          1           0        2.999200   -0.087792   -0.169151
 ---------------------------------------------------------------------

 SCF Done:  E(RPBE1PBE) =  -560.059825466     A.U. after   12 cycles

 The electronic state is 1-A.
 Alpha  occ. eigenvalues --  -66.25377 -19.20203 -19.20051 -10.26439 -10.21452
 Alpha  occ. eigenvalues --  -10.20719  -5.33045  -3.66570  -3.66453  -3.66320
 Alpha  occ. eigenvalues --   -1.04442  -1.02277  -0.78022  -0.70558  -0.63733
 Alpha  occ. eigenvalues --   -0.56825  -0.51106  -0.46831  -0.46521  -0.45645
 Alpha  occ. eigenvalues --   -0.44030  -0.40568  -0.38483  -0.37744  -0.36339
 Alpha  occ. eigenvalues --   -0.35252  -0.31859  -0.30512  -0.29677
 Alpha virt. eigenvalues --    0.03152   0.04718   0.05472   0.07395   0.09838
 Alpha virt. eigenvalues --    0.10469   0.11100   0.11504   0.12506   0.13255
 Alpha virt. eigenvalues --    0.13531   0.14470   0.16428   0.17320   0.18621

 Mulliken atomic charges:
              1
     1  H    0.125074
     2  C   -0.386849
     3  C   -0.320862
     4  H    0.129116
     5  H    0.127239
     6  H    0.123650
     7  Si   0.551066
     8  H    0.114726
     9  O   -0.529587
    10  O   -0.340266
    11  H   -0.068291
    12  H    0.318754
    13  C   -0.210736
    14  H    0.128671
    15  H    0.118238
    16  H    0.120059
 Sum of Mulliken atomic charges =   0.00000

 Dipole moment (field-independent basis, Debye):
    X=              0.1386    Y=             -0.0279    Z=             -1.1195  Tot=              1.1284
 Quadrupole moment (field-independent basis, Debye-Ang):
   XX=            -41.6886   YY=            -45.9573   ZZ=            -44.8851
   XY=             -1.3556   XZ=             -0.2827   YZ=             -4.2530

 Normal termination of Gaussian 09 at Fri Jun 29 13:16:44 2018.
