 Gaussian 09, Revision C.01,
 Gaussian 09:  EM64L-G09RevC.01 23-Sep-2011

 --------------------------------------
 #SP PBE1PBE/Def2TZVP geom=connectivity
 --------------------------------------

 99/5=1,9=1/99;
 -------------
 Structure: 42
 -------------
 Charge =  0 Multiplicity = 1

                         Standard orientation:
 ---------------------------------------------------------------------
 Center     Atomic      Atomic             Coordinates (Angstroms)
 Number     Number       Type             X           Y           Z
 ---------------------------------------------------------------------
      1          1           0       -3.513701   -0.908864   -0.281612
      2          6           0       -2.536001   -0.843545    0.202625
      3          6           0       -1.627932    0.165901   -0.498456
      4          1           0       -2.107564   -1.850306    0.188912
      5          1           0       -2.701709   -0.568771    1.247254
      6          1           0       -1.478070   -0.118183   -1.545948
      7         14           0        0.048835    0.366847    0.282759
      8          1           0       -2.102322    1.152880   -0.515694
      9          8           0        0.689720    1.868445    0.047979
     10          8           0        0.990226   -0.807593   -0.373841
     11          1           0        0.025195    0.230878    1.761813
     12          1           0        0.751237    2.187583   -0.852852
     13          6           0        2.322513   -1.050515    0.013876
     14          1           0        2.684547   -1.927942   -0.526503
     15          1           0        2.396841   -1.250274    1.089302
     16          1           0        2.970801   -0.200733   -0.224670
 ---------------------------------------------------------------------

 SCF Done:  E(RPBE1PBE) =  -560.060544559     A.U. after   12 cycles

 The electronic state is 1-A.
 Alpha  occ. eigenvalues --  -66.25381 -19.20221 -19.20043 -10.26449 -10.21413
 Alpha  occ. eigenvalues --  -10.20768  -5.33045  -3.66571  -3.66453  -3.66320
 Alpha  occ. eigenvalues --   -1.04438  -1.02280  -0.78018  -0.70530  -0.63759
 Alpha  occ. eigenvalues --   -0.56813  -0.51129  -0.46866  -0.46560  -0.45618
 Alpha  occ. eigenvalues --   -0.43792  -0.40685  -0.38491  -0.37820  -0.36280
 Alpha  occ. eigenvalues --   -0.35289  -0.31889  -0.30528  -0.29631
 Alpha virt. eigenvalues --    0.03120   0.04777   0.05497   0.07604   0.09845
 Alpha virt. eigenvalues --    0.10517   0.10936   0.11596   0.12534   0.13368
 Alpha virt. eigenvalues --    0.13639   0.14559   0.16381   0.17226   0.18246

 Mulliken atomic charges:
              1
     1  H    0.125234
     2  C   -0.387142
     3  C   -0.320199
     4  H    0.130694
     5  H    0.126793
     6  H    0.119275
     7  Si   0.551136
     8  H    0.119084
     9  O   -0.530768
    10  O   -0.338892
    11  H   -0.068401
    12  H    0.318941
    13  C   -0.212479
    14  H    0.128654
    15  H    0.118138
    16  H    0.119930
 Sum of Mulliken atomic charges =   0.00000

 Dipole moment (field-independent basis, Debye):
    X=              0.1079    Y=             -0.0443    Z=             -1.1260  Tot=              1.1320
 Quadrupole moment (field-independent basis, Debye-Ang):
   XX=            -41.8301   YY=            -46.0064   ZZ=            -44.7361
   XY=             -1.6861   XZ=             -0.5623   YZ=             -4.1970

 Normal termination of Gaussian 09 at Fri Jun 29 12:50:00 2018.
