 Gaussian 09, Revision C.01,
 Gaussian 09:  EM64L-G09RevC.01 23-Sep-2011

 --------------------------------------
 #SP PBE1PBE/Def2TZVP geom=connectivity
 --------------------------------------

 99/5=1,9=1/99;
 ------------
 Structure: 4
 ------------
 Charge =  0 Multiplicity = 1

                         Standard orientation:
 ---------------------------------------------------------------------
 Center     Atomic      Atomic             Coordinates (Angstroms)
 Number     Number       Type             X           Y           Z
 ---------------------------------------------------------------------
      1          1           0       -3.258135   -1.156399   -0.364564
      2          6           0       -2.174014   -1.087199   -0.243970
      3          6           0       -1.739015    0.330250    0.125756
      4          1           0       -1.728517   -1.413204   -1.188728
      5          1           0       -1.880065   -1.805286    0.525546
      6          1           0       -2.047777    1.039245   -0.650385
      7         14           0        0.092516    0.531445    0.385061
      8          1           0       -2.237949    0.650688    1.046545
      9          8           0        0.712430    1.841306   -0.401716
     10          8           0        0.772973   -0.870296   -0.133206
     11          1           0        0.458361    0.778660    1.803271
     12          1           0        0.544373    1.912554   -1.342676
     13          6           0        2.148265   -1.156232   -0.033650
     14          1           0        2.314959   -2.176997   -0.384526
     15          1           0        2.499258   -1.084364    1.002380
     16          1           0        2.745621   -0.474126   -0.647147
 ---------------------------------------------------------------------

 SCF Done:  E(RPBE1PBE) =  -560.058800625     A.U. after   12 cycles

 The electronic state is 1-A.
 Alpha  occ. eigenvalues --  -66.25389 -19.20225 -19.20054 -10.26472 -10.21001
 Alpha  occ. eigenvalues --  -10.20779  -5.33057  -3.66588  -3.66468  -3.66325
 Alpha  occ. eigenvalues --   -1.04479  -1.02287  -0.77859  -0.70448  -0.63739
 Alpha  occ. eigenvalues --   -0.56693  -0.51221  -0.47047  -0.46809  -0.45487
 Alpha  occ. eigenvalues --   -0.42538  -0.40875  -0.38988  -0.37874  -0.35945
 Alpha  occ. eigenvalues --   -0.35101  -0.31697  -0.30641  -0.29549
 Alpha virt. eigenvalues --    0.03126   0.04248   0.05651   0.08269   0.08683
 Alpha virt. eigenvalues --    0.10590   0.11065   0.11660   0.12388   0.13219
 Alpha virt. eigenvalues --    0.14172   0.14720   0.15348   0.18390   0.19508

 Mulliken atomic charges:
              1
     1  H    0.120138
     2  C   -0.344268
     3  C   -0.348463
     4  H    0.122777
     5  H    0.120624
     6  H    0.111212
     7  Si   0.551137
     8  H    0.124384
     9  O   -0.529389
    10  O   -0.328538
    11  H   -0.066465
    12  H    0.317530
    13  C   -0.216134
    14  H    0.127817
    15  H    0.118185
    16  H    0.119453
 Sum of Mulliken atomic charges =   0.00000

 Dipole moment (field-independent basis, Debye):
    X=             -0.1358    Y=             -0.3642    Z=             -1.0565  Tot=              1.1258
 Quadrupole moment (field-independent basis, Debye-Ang):
   XX=            -42.8738   YY=            -47.9491   ZZ=            -42.5859
   XY=             -3.2940   XZ=             -0.7808   YZ=             -3.0928

 Normal termination of Gaussian 09 at Fri Jun 29 13:25:51 2018.
