 Gaussian 09, Revision C.01,
 Gaussian 09:  EM64L-G09RevC.01 23-Sep-2011

 --------------------------------------
 #SP PBE1PBE/Def2TZVP geom=connectivity
 --------------------------------------

 99/5=1,9=1/99;
 -------------
 Structure: 49
 -------------
 Charge =  0 Multiplicity = 1

                         Standard orientation:
 ---------------------------------------------------------------------
 Center     Atomic      Atomic             Coordinates (Angstroms)
 Number     Number       Type             X           Y           Z
 ---------------------------------------------------------------------
      1          1           0       -3.549977   -0.888185   -0.270549
      2          6           0       -2.599283   -0.766890    0.254920
      3          6           0       -1.598760    0.039147   -0.572331
      4          1           0       -2.226692   -1.772489    0.472317
      5          1           0       -2.808780   -0.278178    1.209635
      6          1           0       -1.405409   -0.458585   -1.529033
      7         14           0        0.039376    0.324102    0.262855
      8          1           0       -2.016486    1.021029   -0.819075
      9          8           0        0.599508    1.862934    0.067382
     10          8           0        1.066677   -0.785016   -0.378767
     11          1           0       -0.021430    0.166409    1.738420
     12          1           0        0.669716    2.198287   -0.827627
     13          6           0        2.397781   -0.957207    0.046209
     14          1           0        2.825530   -1.803533   -0.494888
     15          1           0        2.451862   -1.167540    1.120143
     16          1           0        3.002489   -0.068285   -0.161014
 ---------------------------------------------------------------------

 SCF Done:  E(RPBE1PBE) =  -560.059721250     A.U. after   12 cycles

 The electronic state is 1-A.
 Alpha  occ. eigenvalues --  -66.25380 -19.20209 -19.20042 -10.26418 -10.21461
 Alpha  occ. eigenvalues --  -10.20718  -5.33048  -3.66573  -3.66456  -3.66323
 Alpha  occ. eigenvalues --   -1.04452  -1.02272  -0.78027  -0.70555  -0.63732
 Alpha  occ. eigenvalues --   -0.56825  -0.51106  -0.46832  -0.46526  -0.45654
 Alpha  occ. eigenvalues --   -0.44073  -0.40549  -0.38483  -0.37736  -0.36347
 Alpha  occ. eigenvalues --   -0.35252  -0.31842  -0.30502  -0.29678
 Alpha virt. eigenvalues --    0.03148   0.04702   0.05471   0.07373   0.09833
 Alpha virt. eigenvalues --    0.10449   0.11140   0.11503   0.12500   0.13221
 Alpha virt. eigenvalues --    0.13550   0.14461   0.16415   0.17345   0.18674

 Mulliken atomic charges:
              1
     1  H    0.125053
     2  C   -0.386750
     3  C   -0.320586
     4  H    0.128933
     5  H    0.127273
     6  H    0.124308
     7  Si   0.551059
     8  H    0.113869
     9  O   -0.529547
    10  O   -0.340601
    11  H   -0.068240
    12  H    0.318865
    13  C   -0.210111
    14  H    0.128540
    15  H    0.117983
    16  H    0.119952
 Sum of Mulliken atomic charges =   0.00000

 Dipole moment (field-independent basis, Debye):
    X=              0.1363    Y=             -0.0230    Z=             -1.1216  Tot=              1.1301
 Quadrupole moment (field-independent basis, Debye-Ang):
   XX=            -41.6824   YY=            -45.9541   ZZ=            -44.8956
   XY=             -1.2917   XZ=             -0.2383   YZ=             -4.2591

 Normal termination of Gaussian 09 at Fri Jun 29 13:21:35 2018.
