 Gaussian 09, Revision C.01,
 Gaussian 09:  EM64L-G09RevC.01 23-Sep-2011

 --------------------------------------
 #SP PBE1PBE/Def2TZVP geom=connectivity
 --------------------------------------

 99/5=1,9=1/99;
 -------------
 Structure: 41
 -------------
 Charge =  0 Multiplicity = 1

                         Standard orientation:
 ---------------------------------------------------------------------
 Center     Atomic      Atomic             Coordinates (Angstroms)
 Number     Number       Type             X           Y           Z
 ---------------------------------------------------------------------
      1          1           0       -3.508201   -0.911805   -0.283034
      2          6           0       -2.526659   -0.853139    0.194232
      3          6           0       -1.631867    0.181983   -0.486176
      4          1           0       -2.091472   -1.856051    0.148480
      5          1           0       -2.684851   -0.608933    1.247583
      6          1           0       -1.489483   -0.071561   -1.542511
      7         14           0        0.050437    0.372862    0.285603
      8          1           0       -2.113146    1.165663   -0.471514
      9          8           0        0.701625    1.868805    0.042672
     10          8           0        0.979791   -0.811210   -0.371731
     11          1           0        0.032609    0.242465    1.765046
     12          1           0        0.760772    2.183910   -0.859702
     13          6           0        2.311307   -1.062516    0.010156
     14          1           0        2.664394   -1.944396   -0.529735
     15          1           0        2.390464   -1.259391    1.085331
     16          1           0        2.964782   -0.218701   -0.235182
 ---------------------------------------------------------------------

 SCF Done:  E(RPBE1PBE) =  -560.060664384     A.U. after   12 cycles

 The electronic state is 1-A.
 Alpha  occ. eigenvalues --  -66.25388 -19.20230 -19.20045 -10.26439 -10.21408
 Alpha  occ. eigenvalues --  -10.20781  -5.33051  -3.66577  -3.66459  -3.66326
 Alpha  occ. eigenvalues --   -1.04456  -1.02292  -0.78019  -0.70521  -0.63766
 Alpha  occ. eigenvalues --   -0.56814  -0.51144  -0.46881  -0.46567  -0.45620
 Alpha  occ. eigenvalues --   -0.43756  -0.40709  -0.38499  -0.37838  -0.36267
 Alpha  occ. eigenvalues --   -0.35297  -0.31891  -0.30530  -0.29626
 Alpha virt. eigenvalues --    0.03111   0.04782   0.05503   0.07647   0.09841
 Alpha virt. eigenvalues --    0.10501   0.10930   0.11608   0.12541   0.13356
 Alpha virt. eigenvalues --    0.13705   0.14592   0.16346   0.17217   0.18182

 Mulliken atomic charges:
              1
     1  H    0.125253
     2  C   -0.387100
     3  C   -0.319832
     4  H    0.131025
     5  H    0.126661
     6  H    0.118497
     7  Si   0.550995
     8  H    0.119652
     9  O   -0.530865
    10  O   -0.338691
    11  H   -0.068282
    12  H    0.318938
    13  C   -0.212604
    14  H    0.128492
    15  H    0.118092
    16  H    0.119769
 Sum of Mulliken atomic charges =   0.00000

 Dipole moment (field-independent basis, Debye):
    X=              0.0982    Y=             -0.0477    Z=             -1.1267  Tot=              1.1320
 Quadrupole moment (field-independent basis, Debye-Ang):
   XX=            -41.8702   YY=            -46.0311   ZZ=            -44.6979
   XY=             -1.7367   XZ=             -0.6037   YZ=             -4.1855

 Normal termination of Gaussian 09 at Fri Jun 29 12:46:02 2018.
