 Gaussian 09, Revision C.01,
 Gaussian 09:  EM64L-G09RevC.01 23-Sep-2011

 --------------------------------------
 #SP PBE1PBE/Def2TZVP geom=connectivity
 --------------------------------------

 99/5=1,9=1/99;
 -------------
 Structure: 44
 -------------
 Charge =  0 Multiplicity = 1

                         Standard orientation:
 ---------------------------------------------------------------------
 Center     Atomic      Atomic             Coordinates (Angstroms)
 Number     Number       Type             X           Y           Z
 ---------------------------------------------------------------------
      1          1           0       -3.524534   -0.902847   -0.278255
      2          6           0       -2.554491   -0.823099    0.219044
      3          6           0       -1.619886    0.132127   -0.521997
      4          1           0       -2.140555   -1.834690    0.270558
      5          1           0       -2.734193   -0.486676    1.243123
      6          1           0       -1.456112   -0.213539   -1.548688
      7         14           0        0.045892    0.354841    0.276632
      8          1           0       -2.079516    1.122817   -0.604108
      9          8           0        0.665171    1.867151    0.056943
     10          8           0        1.012329   -0.801334   -0.376928
     11          1           0        0.009832    0.211494    1.754619
     12          1           0        0.730888    2.192349   -0.842101
     13          6           0        2.343546   -1.025036    0.022778
     14          1           0        2.724538   -1.892900   -0.519681
     15          1           0        2.411175   -1.230133    1.097414
     16          1           0        2.980984   -0.164144   -0.204795
 ---------------------------------------------------------------------

 SCF Done:  E(RPBE1PBE) =  -560.060299276     A.U. after   12 cycles

 The electronic state is 1-A.
 Alpha  occ. eigenvalues --  -66.25378 -19.20226 -19.20044 -10.26430 -10.21430
 Alpha  occ. eigenvalues --  -10.20753  -5.33044  -3.66570  -3.66453  -3.66319
 Alpha  occ. eigenvalues --   -1.04454  -1.02284  -0.78022  -0.70531  -0.63752
 Alpha  occ. eigenvalues --   -0.56820  -0.51130  -0.46859  -0.46550  -0.45630
 Alpha  occ. eigenvalues --   -0.43876  -0.40654  -0.38483  -0.37798  -0.36308
 Alpha  occ. eigenvalues --   -0.35275  -0.31871  -0.30517  -0.29648
 Alpha virt. eigenvalues --    0.03121   0.04761   0.05488   0.07536   0.09846
 Alpha virt. eigenvalues --    0.10524   0.10964   0.11567   0.12528   0.13380
 Alpha virt. eigenvalues --    0.13538   0.14528   0.16427   0.17246   0.18372

 Mulliken atomic charges:
              1
     1  H    0.125208
     2  C   -0.387145
     3  C   -0.320830
     4  H    0.130105
     5  H    0.127032
     6  H    0.120821
     7  Si   0.551321
     8  H    0.117853
     9  O   -0.530087
    10  O   -0.339407
    11  H   -0.068455
    12  H    0.319020
    13  C   -0.211806
    14  H    0.128537
    15  H    0.118030
    16  H    0.119805
 Sum of Mulliken atomic charges =   0.00000

 Dipole moment (field-independent basis, Debye):
    X=              0.1146    Y=             -0.0330    Z=             -1.1264  Tot=              1.1327
 Quadrupole moment (field-independent basis, Debye-Ang):
   XX=            -41.7901   YY=            -45.9797   ZZ=            -44.7962
   XY=             -1.5645   XZ=             -0.4752   YZ=             -4.2212

 Normal termination of Gaussian 09 at Fri Jun 29 12:58:05 2018.
