 Gaussian 09, Revision C.01,
 Gaussian 09:  EM64L-G09RevC.01 23-Sep-2011

 --------------------------------------
 #SP PBE1PBE/Def2TZVP geom=connectivity
 --------------------------------------

 99/5=1,9=1/99;
 -------------
 Structure: 47
 -------------
 Charge =  0 Multiplicity = 1

                         Standard orientation:
 ---------------------------------------------------------------------
 Center     Atomic      Atomic             Coordinates (Angstroms)
 Number     Number       Type             X           Y           Z
 ---------------------------------------------------------------------
      1          1           0       -3.539954   -0.893978   -0.273793
      2          6           0       -2.581552   -0.790278    0.241340
      3          6           0       -1.607201    0.077804   -0.553744
      4          1           0       -2.191580   -1.801489    0.391968
      5          1           0       -2.780155   -0.362113    1.226957
      6          1           0       -1.424654   -0.359480   -1.541601
      7         14           0        0.041914    0.336464    0.268290
      8          1           0       -2.042513    1.066427   -0.734290
      9          8           0        0.626572    1.865019    0.065271
     10          8           0        1.044376   -0.791072   -0.378931
     11          1           0       -0.010489    0.182341    1.744143
     12          1           0        0.695784    2.197012   -0.830519
     13          6           0        2.376109   -0.985610    0.036348
     14          1           0        2.785053   -1.840158   -0.505784
     15          1           0        2.435103   -1.194833    1.110226
     16          1           0        2.994883   -0.107292   -0.177752
 ---------------------------------------------------------------------

 SCF Done:  E(RPBE1PBE) =  -560.059936603     A.U. after   12 cycles

 The electronic state is 1-A.
 Alpha  occ. eigenvalues --  -66.25365 -19.20206 -19.20046 -10.26435 -10.21445
 Alpha  occ. eigenvalues --  -10.20722  -5.33035  -3.66560  -3.66444  -3.66310
 Alpha  occ. eigenvalues --   -1.04450  -1.02280  -0.78020  -0.70559  -0.63735
 Alpha  occ. eigenvalues --   -0.56826  -0.51117  -0.46837  -0.46540  -0.45640
 Alpha  occ. eigenvalues --   -0.43993  -0.40588  -0.38485  -0.37756  -0.36332
 Alpha  occ. eigenvalues --   -0.35257  -0.31864  -0.30511  -0.29666
 Alpha virt. eigenvalues --    0.03145   0.04733   0.05479   0.07430   0.09842
 Alpha virt. eigenvalues --    0.10492   0.11065   0.11529   0.12515   0.13293
 Alpha virt. eigenvalues --    0.13520   0.14481   0.16443   0.17301   0.18562

 Mulliken atomic charges:
              1
     1  H    0.125102
     2  C   -0.386946
     3  C   -0.321016
     4  H    0.129322
     5  H    0.127199
     6  H    0.122953
     7  Si   0.551186
     8  H    0.115546
     9  O   -0.529699
    10  O   -0.339843
    11  H   -0.068438
    12  H    0.318840
    13  C   -0.210976
    14  H    0.128679
    15  H    0.118144
    16  H    0.119946
 Sum of Mulliken atomic charges =   0.00000

 Dipole moment (field-independent basis, Debye):
    X=              0.1351    Y=             -0.0293    Z=             -1.1222  Tot=              1.1306
 Quadrupole moment (field-independent basis, Debye-Ang):
   XX=            -41.7115   YY=            -45.9532   ZZ=            -44.8658
   XY=             -1.4102   XZ=             -0.3346   YZ=             -4.2438

 Normal termination of Gaussian 09 at Fri Jun 29 13:11:42 2018.
