 Gaussian 09, Revision C.01,
 Gaussian 09:  EM64L-G09RevC.01 23-Sep-2011

 --------------------------------------
 #SP PBE1PBE/Def2TZVP geom=connectivity
 --------------------------------------

 99/5=1,9=1/99;
 -------------
 Structure: 43
 -------------
 Charge =  0 Multiplicity = 1

                         Standard orientation:
 ---------------------------------------------------------------------
 Center     Atomic      Atomic             Coordinates (Angstroms)
 Number     Number       Type             X           Y           Z
 ---------------------------------------------------------------------
      1          1           0       -3.519383   -0.905647   -0.280073
      2          6           0       -2.545506   -0.833386    0.210834
      3          6           0       -1.624110    0.149407   -0.510438
      4          1           0       -2.124218   -1.843080    0.229494
      5          1           0       -2.718352   -0.527902    1.245732
      6          1           0       -1.467152   -0.165354   -1.548075
      7         14           0        0.047171    0.360821    0.279719
      8          1           0       -2.091220    1.138767   -0.559884
      9          8           0        0.678228    1.867622    0.052843
     10          8           0        1.001321   -0.804068   -0.375194
     11          1           0        0.017144    0.220927    1.758114
     12          1           0        0.741053    2.190096   -0.847321
     13          6           0        2.333315   -1.038177    0.018122
     14          1           0        2.703688   -1.910978   -0.523590
     15          1           0        2.403928   -1.240779    1.092353
     16          1           0        2.975532   -0.183044   -0.215122
 ---------------------------------------------------------------------

 SCF Done:  E(RPBE1PBE) =  -560.060422873     A.U. after   12 cycles

 The electronic state is 1-A.
 Alpha  occ. eigenvalues --  -66.25373 -19.20219 -19.20034 -10.26426 -10.21422
 Alpha  occ. eigenvalues --  -10.20762  -5.33039  -3.66565  -3.66447  -3.66314
 Alpha  occ. eigenvalues --   -1.04438  -1.02269  -0.78021  -0.70543  -0.63756
 Alpha  occ. eigenvalues --   -0.56806  -0.51123  -0.46871  -0.46556  -0.45627
 Alpha  occ. eigenvalues --   -0.43836  -0.40668  -0.38488  -0.37807  -0.36292
 Alpha  occ. eigenvalues --   -0.35282  -0.31876  -0.30523  -0.29639
 Alpha virt. eigenvalues --    0.03120   0.04770   0.05494   0.07573   0.09846
 Alpha virt. eigenvalues --    0.10525   0.10946   0.11588   0.12531   0.13383
 Alpha virt. eigenvalues --    0.13585   0.14542   0.16411   0.17233   0.18310

 Mulliken atomic charges:
              1
     1  H    0.125228
     2  C   -0.387147
     3  C   -0.320557
     4  H    0.130388
     5  H    0.126932
     6  H    0.120061
     7  Si   0.551088
     8  H    0.118501
     9  O   -0.530538
    10  O   -0.339146
    11  H   -0.068529
    12  H    0.319007
    13  C   -0.211913
    14  H    0.128568
    15  H    0.118135
    16  H    0.119921
 Sum of Mulliken atomic charges =   0.00000

 Dipole moment (field-independent basis, Debye):
    X=              0.1103    Y=             -0.0409    Z=             -1.1269  Tot=              1.1330
 Quadrupole moment (field-independent basis, Debye-Ang):
   XX=            -41.8053   YY=            -45.9879   ZZ=            -44.7656
   XY=             -1.6330   XZ=             -0.5179   YZ=             -4.2101

 Normal termination of Gaussian 09 at Fri Jun 29 12:53:39 2018.
