 Gaussian 09, Revision C.01,
 Gaussian 09:  EM64L-G09RevC.01 23-Sep-2011

 --------------------------------------
 #SP PBE1PBE/Def2TZVP geom=connectivity
 --------------------------------------

 99/5=1,9=1/99;
 -------------
 Structure: 40
 -------------
 Charge =  0 Multiplicity = 1

                         Standard orientation:
 ---------------------------------------------------------------------
 Center     Atomic      Atomic             Coordinates (Angstroms)
 Number     Number       Type             X           Y           Z
 ---------------------------------------------------------------------
      1          1           0       -3.502696   -0.914919   -0.284487
      2          6           0       -2.517297   -0.862620    0.185515
      3          6           0       -1.635871    0.197513   -0.473492
      4          1           0       -2.075636   -1.860722    0.107787
      5          1           0       -2.667616   -0.649133    1.246664
      6          1           0       -1.501321   -0.025338   -1.537745
      7         14           0        0.052003    0.378735    0.288391
      8          1           0       -2.123771    1.176930   -0.426971
      9          8           0        0.712894    1.868634    0.036957
     10          8           0        0.968963   -0.814168   -0.368824
     11          1           0        0.041295    0.253867    1.768884
     12          1           0        0.769368    2.180752   -0.867319
     13          6           0        2.301424   -1.073933    0.005917
     14          1           0        2.644157   -1.960596   -0.532597
     15          1           0        2.384412   -1.268130    1.081410
     16          1           0        2.959371   -0.236482   -0.245812
 ---------------------------------------------------------------------

 SCF Done:  E(RPBE1PBE) =  -560.060782076     A.U. after   12 cycles

 The electronic state is 1-A.
 Alpha  occ. eigenvalues --  -66.25376 -19.20236 -19.20041 -10.26442 -10.21396
 Alpha  occ. eigenvalues --  -10.20787  -5.33040  -3.66566  -3.66448  -3.66315
 Alpha  occ. eigenvalues --   -1.04448  -1.02281  -0.78015  -0.70532  -0.63766
 Alpha  occ. eigenvalues --   -0.56803  -0.51143  -0.46893  -0.46574  -0.45613
 Alpha  occ. eigenvalues --   -0.43710  -0.40725  -0.38491  -0.37853  -0.36249
 Alpha  occ. eigenvalues --   -0.35308  -0.31897  -0.30544  -0.29611
 Alpha virt. eigenvalues --    0.03101   0.04790   0.05514   0.07688   0.09837
 Alpha virt. eigenvalues --    0.10481   0.10928   0.11630   0.12547   0.13344
 Alpha virt. eigenvalues --    0.13780   0.14613   0.16314   0.17215   0.18121

 Mulliken atomic charges:
              1
     1  H    0.125225
     2  C   -0.386966
     3  C   -0.319447
     4  H    0.131338
     5  H    0.126504
     6  H    0.117671
     7  Si   0.550579
     8  H    0.120116
     9  O   -0.531128
    10  O   -0.338359
    11  H   -0.068432
    12  H    0.319069
    13  C   -0.212766
    14  H    0.128535
    15  H    0.118155
    16  H    0.119906
 Sum of Mulliken atomic charges =   0.00000

 Dipole moment (field-independent basis, Debye):
    X=              0.0981    Y=             -0.0525    Z=             -1.1321  Tot=              1.1376
 Quadrupole moment (field-independent basis, Debye-Ang):
   XX=            -41.8867   YY=            -46.0409   ZZ=            -44.6643
   XY=             -1.7949   XZ=             -0.6479   YZ=             -4.1749

 Normal termination of Gaussian 09 at Fri Jun 29 12:41:52 2018.
