 Gaussian 09, Revision C.01,
 Gaussian 09:  EM64L-G09RevC.01 23-Sep-2011

 --------------------------------------
 #SP PBE1PBE/Def2TZVP geom=connectivity
 --------------------------------------

 99/5=1,9=1/99;
 -------------
 Structure: 45
 -------------
 Charge =  0 Multiplicity = 1

                         Standard orientation:
 ---------------------------------------------------------------------
 Center     Atomic      Atomic             Coordinates (Angstroms)
 Number     Number       Type             X           Y           Z
 ---------------------------------------------------------------------
      1          1           0       -3.529801   -0.900049   -0.276736
      2          6           0       -2.563617   -0.812599    0.226742
      3          6           0       -1.615853    0.114536   -0.533027
      4          1           0       -2.157279   -1.825073    0.311004
      5          1           0       -2.749917   -0.445623    1.239081
      6          1           0       -1.445523   -0.261648   -1.547855
      7         14           0        0.044387    0.348844    0.273774
      8          1           0       -2.067762    1.105546   -0.647681
      9          8           0        0.652770    1.866358    0.060570
     10          8           0        1.022814   -0.797511   -0.377898
     11          1           0        0.002936    0.200860    1.751031
     12          1           0        0.719097    2.194689   -0.837968
     13          6           0        2.355002   -1.012445    0.027140
     14          1           0        2.744368   -1.875560   -0.515872
     15          1           0        2.419166   -1.219141    1.101342
     16          1           0        2.985436   -0.145539   -0.195697
 ---------------------------------------------------------------------

 SCF Done:  E(RPBE1PBE) =  -560.060176223     A.U. after   12 cycles

 The electronic state is 1-A.
 Alpha  occ. eigenvalues --  -66.25363 -19.20223 -19.20035 -10.26430 -10.21433
 Alpha  occ. eigenvalues --  -10.20740  -5.33031  -3.66556  -3.66440  -3.66306
 Alpha  occ. eigenvalues --   -1.04428  -1.02261  -0.78019  -0.70549  -0.63744
 Alpha  occ. eigenvalues --   -0.56807  -0.51109  -0.46848  -0.46543  -0.45631
 Alpha  occ. eigenvalues --   -0.43910  -0.40630  -0.38481  -0.37782  -0.36315
 Alpha  occ. eigenvalues --   -0.35269  -0.31868  -0.30514  -0.29651
 Alpha virt. eigenvalues --    0.03123   0.04754   0.05488   0.07499   0.09846
 Alpha virt. eigenvalues --    0.10519   0.10989   0.11559   0.12524   0.13362
 Alpha virt. eigenvalues --    0.13518   0.14506   0.16443   0.17261   0.18440

 Mulliken atomic charges:
              1
     1  H    0.125165
     2  C   -0.387074
     3  C   -0.321007
     4  H    0.129825
     5  H    0.127099
     6  H    0.121551
     7  Si   0.551150
     8  H    0.117098
     9  O   -0.530027
    10  O   -0.339695
    11  H   -0.068605
    12  H    0.319132
    13  C   -0.211437
    14  H    0.128681
    15  H    0.118160
    16  H    0.119983
 Sum of Mulliken atomic charges =   0.00000

 Dipole moment (field-independent basis, Debye):
    X=              0.1243    Y=             -0.0314    Z=             -1.1262  Tot=              1.1335
 Quadrupole moment (field-independent basis, Debye-Ang):
   XX=            -41.7529   YY=            -45.9596   ZZ=            -44.8220
   XY=             -1.5209   XZ=             -0.4284   YZ=             -4.2317

 Normal termination of Gaussian 09 at Fri Jun 29 13:02:19 2018.
