 Gaussian 09, Revision C.01,
 Gaussian 09:  EM64L-G09RevC.01 23-Sep-2011

 --------------------------------------
 #SP PBE1PBE/Def2TZVP geom=connectivity
 --------------------------------------

 99/5=1,9=1/99;
 -------------
 Structure: 46
 -------------
 Charge =  0 Multiplicity = 1

                         Standard orientation:
 ---------------------------------------------------------------------
 Center     Atomic      Atomic             Coordinates (Angstroms)
 Number     Number       Type             X           Y           Z
 ---------------------------------------------------------------------
      1          1           0       -3.535189   -0.896429   -0.275135
      2          6           0       -2.572870   -0.801145    0.234289
      3          6           0       -1.611616    0.096562   -0.543655
      4          1           0       -2.174774   -1.813583    0.351783
      5          1           0       -2.765389   -0.403351    1.233742
      6          1           0       -1.435112   -0.310394   -1.545471
      7         14           0        0.043118    0.342583    0.270932
      8          1           0       -2.055169    1.086980   -0.691312
      9          8           0        0.640521    1.866080    0.063268
     10          8           0        1.033503   -0.795125   -0.378728
     11          1           0       -0.003557    0.191788    1.747596
     12          1           0        0.708354    2.195478   -0.834519
     13          6           0        2.365154   -0.998907    0.031779
     14          1           0        2.764527   -1.859095   -0.510267
     15          1           0        2.425864   -1.207684    1.106168
     16          1           0        2.990588   -0.126572   -0.186429
 ---------------------------------------------------------------------

 SCF Done:  E(RPBE1PBE) =  -560.060054582     A.U. after   12 cycles

 The electronic state is 1-A.
 Alpha  occ. eigenvalues --  -66.25379 -19.20221 -19.20046 -10.26441 -10.21445
 Alpha  occ. eigenvalues --  -10.20740  -5.33046  -3.66571  -3.66455  -3.66321
 Alpha  occ. eigenvalues --   -1.04441  -1.02263  -0.78026  -0.70536  -0.63744
 Alpha  occ. eigenvalues --   -0.56802  -0.51108  -0.46846  -0.46533  -0.45638
 Alpha  occ. eigenvalues --   -0.43955  -0.40614  -0.38483  -0.37768  -0.36325
 Alpha  occ. eigenvalues --   -0.35260  -0.31860  -0.30517  -0.29664
 Alpha virt. eigenvalues --    0.03126   0.04739   0.05477   0.07462   0.09841
 Alpha virt. eigenvalues --    0.10504   0.11021   0.11533   0.12516   0.13331
 Alpha virt. eigenvalues --    0.13509   0.14490   0.16438   0.17270   0.18497

 Mulliken atomic charges:
              1
     1  H    0.125164
     2  C   -0.387025
     3  C   -0.321051
     4  H    0.129597
     5  H    0.127180
     6  H    0.122320
     7  Si   0.551306
     8  H    0.116412
     9  O   -0.530016
    10  O   -0.339866
    11  H   -0.068382
    12  H    0.318998
    13  C   -0.211281
    14  H    0.128582
    15  H    0.118079
    16  H    0.119982
 Sum of Mulliken atomic charges =   0.00000

 Dipole moment (field-independent basis, Debye):
    X=              0.1230    Y=             -0.0311    Z=             -1.1243  Tot=              1.1315
 Quadrupole moment (field-independent basis, Debye-Ang):
   XX=            -41.7402   YY=            -45.9706   ZZ=            -44.8455
   XY=             -1.4615   XZ=             -0.3834   YZ=             -4.2405

 Normal termination of Gaussian 09 at Fri Jun 29 13:06:53 2018.
