 Gaussian 09, Revision C.01,
 Gaussian 09:  EM64L-G09RevC.01 23-Sep-2011

 --------------------------------------
 #SP PBE1PBE/Def2TZVP geom=connectivity
 --------------------------------------

 99/5=1,9=1/99;
 -------------
 Structure: 54
 -------------
 Charge =  0 Multiplicity = 1

                         Standard orientation:
 ---------------------------------------------------------------------
 Center     Atomic      Atomic             Coordinates (Angstroms)
 Number     Number       Type             X           Y           Z
 ---------------------------------------------------------------------
      1          1           0       -3.572944   -0.873041   -0.261549
      2          6           0       -2.641327   -0.702041    0.283885
      3          6           0       -1.576460   -0.065525   -0.608298
      4          1           0       -2.317252   -1.673202    0.670065
      5          1           0       -2.871987   -0.065274    1.141518
      6          1           0       -1.362183   -0.710997   -1.467282
      7         14           0        0.034696    0.293268    0.250579
      8          1           0       -1.945270    0.879104   -1.021970
      9          8           0        0.529495    1.854786    0.060125
     10          8           0        1.119386   -0.770472   -0.372860
     11          1           0       -0.040703    0.135508    1.725353
     12          1           0        0.597063    2.191765   -0.834244
     13          6           0        2.450552   -0.881876    0.071631
     14          1           0        2.923386   -1.710331   -0.460221
     15          1           0        2.498179   -1.088958    1.147335
     16          1           0        3.018326    0.031810   -0.128536
 ---------------------------------------------------------------------

 SCF Done:  E(RPBE1PBE) =  -560.059310256     A.U. after   12 cycles

 The electronic state is 1-A.
 Alpha  occ. eigenvalues --  -66.25379 -19.20206 -19.20041 -10.26419 -10.21484
 Alpha  occ. eigenvalues --  -10.20703  -5.33049  -3.66574  -3.66458  -3.66324
 Alpha  occ. eigenvalues --   -1.04458  -1.02280  -0.78036  -0.70564  -0.63717
 Alpha  occ. eigenvalues --   -0.56845  -0.51080  -0.46823  -0.46478  -0.45681
 Alpha  occ. eigenvalues --   -0.44253  -0.40444  -0.38488  -0.37706  -0.36363
 Alpha  occ. eigenvalues --   -0.35258  -0.31817  -0.30504  -0.29698
 Alpha virt. eigenvalues --    0.03173   0.04627   0.05482   0.07241   0.09818
 Alpha virt. eigenvalues --    0.10326   0.11350   0.11496   0.12476   0.13082
 Alpha virt. eigenvalues --    0.13616   0.14424   0.16308   0.17457   0.18898

 Mulliken atomic charges:
              1
     1  H    0.124954
     2  C   -0.386266
     3  C   -0.317795
     4  H    0.128166
     5  H    0.127351
     6  H    0.126976
     7  Si   0.549838
     8  H    0.109182
     9  O   -0.529026
    10  O   -0.341665
    11  H   -0.068116
    12  H    0.318593
    13  C   -0.208698
    14  H    0.128477
    15  H    0.117832
    16  H    0.120197
 Sum of Mulliken atomic charges =   0.00000

 Dipole moment (field-independent basis, Debye):
    X=              0.1495    Y=             -0.0190    Z=             -1.1180  Tot=              1.1281
 Quadrupole moment (field-independent basis, Debye-Ang):
   XX=            -41.6067   YY=            -45.9973   ZZ=            -44.9124
   XY=             -1.0137   XZ=              0.0084   YZ=             -4.2841

 Normal termination of Gaussian 09 at Fri Jun 29 13:46:48 2018.
