 Gaussian 09, Revision C.01,
 Gaussian 09:  EM64L-G09RevC.01 23-Sep-2011

 --------------------------------------
 #SP PBE1PBE/Def2TZVP geom=connectivity
 --------------------------------------

 99/5=1,9=1/99;
 -------------
 Structure: 53
 -------------
 Charge =  0 Multiplicity = 1

                         Standard orientation:
 ---------------------------------------------------------------------
 Center     Atomic      Atomic             Coordinates (Angstroms)
 Number     Number       Type             X           Y           Z
 ---------------------------------------------------------------------
      1          1           0       -3.568448   -0.876470   -0.263455
      2          6           0       -2.633079   -0.715917    0.278724
      3          6           0       -1.580969   -0.043835   -0.602443
      4          1           0       -2.298640   -1.696361    0.631137
      5          1           0       -2.860315   -0.108185    1.158063
      6          1           0       -1.370066   -0.660345   -1.483259
      7         14           0        0.035455    0.299517    0.252840
      8          1           0       -1.960207    0.910628   -0.982768
      9          8           0        0.542998    1.856924    0.063107
     10          8           0        1.109351   -0.773383   -0.374962
     11          1           0       -0.038340    0.139582    1.727794
     12          1           0        0.613226    2.193883   -0.831159
     13          6           0        2.440376   -0.897268    0.066795
     14          1           0        2.904614   -1.728696   -0.467742
     15          1           0        2.488629   -1.106145    1.142075
     16          1           0        3.016426    0.012667   -0.134062
 ---------------------------------------------------------------------

 SCF Done:  E(RPBE1PBE) =  -560.059372875     A.U. after   12 cycles

 The electronic state is 1-A.
 Alpha  occ. eigenvalues --  -66.25387 -19.20213 -19.20044 -10.26431 -10.21479
 Alpha  occ. eigenvalues --  -10.20702  -5.33056  -3.66581  -3.66464  -3.66330
 Alpha  occ. eigenvalues --   -1.04452  -1.02283  -0.78032  -0.70549  -0.63718
 Alpha  occ. eigenvalues --   -0.56843  -0.51082  -0.46812  -0.46486  -0.45674
 Alpha  occ. eigenvalues --   -0.44217  -0.40467  -0.38486  -0.37711  -0.36365
 Alpha  occ. eigenvalues --   -0.35254  -0.31822  -0.30499  -0.29693
 Alpha virt. eigenvalues --    0.03164   0.04642   0.05476   0.07262   0.09821
 Alpha virt. eigenvalues --    0.10351   0.11304   0.11482   0.12479   0.13100
 Alpha virt. eigenvalues --    0.13601   0.14428   0.16326   0.17437   0.18863

 Mulliken atomic charges:
              1
     1  H    0.124957
     2  C   -0.386376
     3  C   -0.318532
     4  H    0.128293
     5  H    0.127331
     6  H    0.126523
     7  Si   0.550281
     8  H    0.110146
     9  O   -0.529024
    10  O   -0.341702
    11  H   -0.068027
    12  H    0.318713
    13  C   -0.209027
    14  H    0.128536
    15  H    0.117910
    16  H    0.120000
 Sum of Mulliken atomic charges =   0.00000

 Dipole moment (field-independent basis, Debye):
    X=              0.1493    Y=             -0.0171    Z=             -1.1180  Tot=              1.1281
 Quadrupole moment (field-independent basis, Debye-Ang):
   XX=            -41.6245   YY=            -45.9848   ZZ=            -44.9178
   XY=             -1.0614   XZ=             -0.0421   YZ=             -4.2812

 Normal termination of Gaussian 09 at Fri Jun 29 13:42:48 2018.
