 Gaussian 09, Revision C.01,
 Gaussian 09:  EM64L-G09RevC.01 23-Sep-2011

 --------------------------------------
 #SP PBE1PBE/Def2TZVP geom=connectivity
 --------------------------------------

 99/5=1,9=1/99;
 ------------
 Structure: 5
 ------------
 Charge =  0 Multiplicity = 1

                         Standard orientation:
 ---------------------------------------------------------------------
 Center     Atomic      Atomic             Coordinates (Angstroms)
 Number     Number       Type             X           Y           Z
 ---------------------------------------------------------------------
      1          1           0       -3.265143   -1.146233   -0.362261
      2          6           0       -2.181876   -1.084006   -0.230699
      3          6           0       -1.737595    0.338464    0.107352
      4          1           0       -1.728630   -1.438570   -1.161380
      5          1           0       -1.903756   -1.784563    0.560552
      6          1           0       -2.030537    1.029898   -0.690461
      7         14           0        0.092662    0.529290    0.382983
      8          1           0       -2.244048    0.687338    1.013586
      9          8           0        0.724265    1.843309   -0.387898
     10          8           0        0.771553   -0.871165   -0.141369
     11          1           0        0.448167    0.762562    1.806787
     12          1           0        0.564666    1.922521   -1.329450
     13          6           0        2.144504   -1.164022   -0.033800
     14          1           0        2.308919   -2.181861   -0.391070
     15          1           0        2.486915   -1.102352    1.005734
     16          1           0        2.749444   -0.478574   -0.636769
 ---------------------------------------------------------------------

 SCF Done:  E(RPBE1PBE) =  -560.058886207     A.U. after   12 cycles

 The electronic state is 1-A.
 Alpha  occ. eigenvalues --  -66.25400 -19.20229 -19.20049 -10.26463 -10.21005
 Alpha  occ. eigenvalues --  -10.20788  -5.33065  -3.66596  -3.66476  -3.66334
 Alpha  occ. eigenvalues --   -1.04481  -1.02294  -0.77862  -0.70451  -0.63742
 Alpha  occ. eigenvalues --   -0.56696  -0.51219  -0.47050  -0.46823  -0.45486
 Alpha  occ. eigenvalues --   -0.42551  -0.40879  -0.38973  -0.37887  -0.35920
 Alpha  occ. eigenvalues --   -0.35136  -0.31698  -0.30649  -0.29537
 Alpha virt. eigenvalues --    0.03148   0.04244   0.05639   0.08284   0.08673
 Alpha virt. eigenvalues --    0.10604   0.11076   0.11686   0.12329   0.13233
 Alpha virt. eigenvalues --    0.14215   0.14731   0.15378   0.18373   0.19491

 Mulliken atomic charges:
              1
     1  H    0.120126
     2  C   -0.345876
     3  C   -0.346076
     4  H    0.123890
     5  H    0.120359
     6  H    0.110411
     7  Si   0.550677
     8  H    0.124308
     9  O   -0.529660
    10  O   -0.329153
    11  H   -0.066479
    12  H    0.317512
    13  C   -0.215294
    14  H    0.127874
    15  H    0.118112
    16  H    0.119269
 Sum of Mulliken atomic charges =   0.00000

 Dipole moment (field-independent basis, Debye):
    X=             -0.1305    Y=             -0.3555    Z=             -1.0635  Tot=              1.1289
 Quadrupole moment (field-independent basis, Debye-Ang):
   XX=            -42.8888   YY=            -47.8776   ZZ=            -42.6301
   XY=             -3.2840   XZ=             -0.8159   YZ=             -3.1353

 Normal termination of Gaussian 09 at Fri Jun 29 14:11:59 2018.
