 Gaussian 09, Revision C.01,
 Gaussian 09:  EM64L-G09RevC.01 23-Sep-2011

 --------------------------------------
 #SP PBE1PBE/Def2TZVP geom=connectivity
 --------------------------------------

 99/5=1,9=1/99;
 -------------
 Structure: 59
 -------------
 Charge =  0 Multiplicity = 1

                         Standard orientation:
 ---------------------------------------------------------------------
 Center     Atomic      Atomic             Coordinates (Angstroms)
 Number     Number       Type             X           Y           Z
 ---------------------------------------------------------------------
      1          1           0       -3.592532   -0.858593   -0.251887
      2          6           0       -2.679391   -0.630295    0.303723
      3          6           0       -1.553381   -0.180335   -0.626182
      4          1           0       -2.409849   -1.535476    0.856271
      5          1           0       -2.922121    0.144061    1.035614
      6          1           0       -1.327284   -0.962988   -1.358804
      7         14           0        0.031885    0.262983    0.241359
      8          1           0       -1.867420    0.695603   -1.203748
      9          8           0        0.455385    1.843236    0.035033
     10          8           0        1.170202   -0.757082   -0.360486
     11          1           0       -0.049822    0.119239    1.717325
     12          1           0        0.516140    2.171817   -0.862778
     13          6           0        2.500902   -0.801549    0.097011
     14          1           0        3.016576   -1.613788   -0.420685
     15          1           0        2.548173   -0.992999    1.176017
     16          1           0        3.028270    0.135210   -0.110037
 ---------------------------------------------------------------------

 SCF Done:  E(RPBE1PBE) =  -560.059176955     A.U. after   12 cycles

 The electronic state is 1-A.
 Alpha  occ. eigenvalues --  -66.25392 -19.20214 -19.20039 -10.26431 -10.21496
 Alpha  occ. eigenvalues --  -10.20703  -5.33061  -3.66586  -3.66469  -3.66335
 Alpha  occ. eigenvalues --   -1.04453  -1.02287  -0.78043  -0.70559  -0.63704
 Alpha  occ. eigenvalues --   -0.56866  -0.51048  -0.46811  -0.46424  -0.45712
 Alpha  occ. eigenvalues --   -0.44411  -0.40324  -0.38508  -0.37711  -0.36360
 Alpha  occ. eigenvalues --   -0.35291  -0.31810  -0.30494  -0.29703
 Alpha virt. eigenvalues --    0.03186   0.04563   0.05525   0.07138   0.09822
 Alpha virt. eigenvalues --    0.10205   0.11480   0.11599   0.12493   0.12975
 Alpha virt. eigenvalues --    0.13593   0.14441   0.16217   0.17509   0.19007

 Mulliken atomic charges:
              1
     1  H    0.125068
     2  C   -0.385608
     3  C   -0.313243
     4  H    0.127686
     5  H    0.127457
     6  H    0.128422
     7  Si   0.547943
     8  H    0.104961
     9  O   -0.528962
    10  O   -0.342676
    11  H   -0.068272
    12  H    0.318452
    13  C   -0.207603
    14  H    0.128482
    15  H    0.117769
    16  H    0.120124
 Sum of Mulliken atomic charges =   0.00000

 Dipole moment (field-independent basis, Debye):
    X=              0.1585    Y=             -0.0257    Z=             -1.1101  Tot=              1.1216
 Quadrupole moment (field-independent basis, Debye-Ang):
   XX=            -41.5596   YY=            -46.1275   ZZ=            -44.8281
   XY=             -0.7269   XZ=              0.2527   YZ=             -4.2907

 Normal termination of Gaussian 09 at Fri Jun 29 14:08:09 2018.
