 Gaussian 09, Revision C.01,
 Gaussian 09:  EM64L-G09RevC.01 23-Sep-2011

 --------------------------------------
 #SP PBE1PBE/Def2TZVP geom=connectivity
 --------------------------------------

 99/5=1,9=1/99;
 -------------
 Structure: 55
 -------------
 Charge =  0 Multiplicity = 1

                         Standard orientation:
 ---------------------------------------------------------------------
 Center     Atomic      Atomic             Coordinates (Angstroms)
 Number     Number       Type             X           Y           Z
 ---------------------------------------------------------------------
      1          1           0       -3.577049   -0.870195   -0.259799
      2          6           0       -2.649197   -0.688391    0.288550
      3          6           0       -1.571836   -0.087663   -0.613396
      4          1           0       -2.335521   -1.649045    0.708150
      5          1           0       -2.883052   -0.023277    1.123502
      6          1           0       -1.354413   -0.761409   -1.449575
      7         14           0        0.034018    0.287114    0.248578
      8          1           0       -1.930185    0.845909   -1.060049
      9          8           0        0.514531    1.853012    0.056481
     10          8           0        1.130088   -0.767638   -0.371356
     11          1           0       -0.043816    0.130317    1.723896
     12          1           0        0.582707    2.189033   -0.838027
     13          6           0        2.460480   -0.866414    0.077236
     14          1           0        2.942315   -1.690563   -0.452865
     15          1           0        2.508162   -1.071153    1.152751
     16          1           0        3.020968    0.052606   -0.123418
 ---------------------------------------------------------------------

 SCF Done:  E(RPBE1PBE) =  -560.059257716     A.U. after   12 cycles

 The electronic state is 1-A.
 Alpha  occ. eigenvalues --  -66.25394 -19.20207 -19.20045 -10.26413 -10.21487
 Alpha  occ. eigenvalues --  -10.20701  -5.33062  -3.66586  -3.66470  -3.66336
 Alpha  occ. eigenvalues --   -1.04464  -1.02285  -0.78037  -0.70562  -0.63714
 Alpha  occ. eigenvalues --   -0.56854  -0.51082  -0.46816  -0.46473  -0.45687
 Alpha  occ. eigenvalues --   -0.44289  -0.40417  -0.38494  -0.37703  -0.36365
 Alpha  occ. eigenvalues --   -0.35260  -0.31816  -0.30496  -0.29702
 Alpha virt. eigenvalues --    0.03177   0.04612   0.05486   0.07220   0.09817
 Alpha virt. eigenvalues --    0.10302   0.11380   0.11495   0.12474   0.13060
 Alpha virt. eigenvalues --    0.13618   0.14430   0.16282   0.17474   0.18933

 Mulliken atomic charges:
              1
     1  H    0.124961
     2  C   -0.386210
     3  C   -0.316891
     4  H    0.128047
     5  H    0.127366
     6  H    0.127349
     7  Si   0.549662
     8  H    0.108290
     9  O   -0.529098
    10  O   -0.341976
    11  H   -0.067963
    12  H    0.318567
    13  C   -0.208405
    14  H    0.128447
    15  H    0.117860
    16  H    0.119994
 Sum of Mulliken atomic charges =   0.00000

 Dipole moment (field-independent basis, Debye):
    X=              0.1520    Y=             -0.0195    Z=             -1.1147  Tot=              1.1251
 Quadrupole moment (field-independent basis, Debye-Ang):
   XX=            -41.6023   YY=            -46.0186   ZZ=            -44.9030
   XY=             -0.9506   XZ=              0.0590   YZ=             -4.2873

 Normal termination of Gaussian 09 at Fri Jun 29 13:51:21 2018.
