 Gaussian 09, Revision C.01,
 Gaussian 09:  EM64L-G09RevC.01 23-Sep-2011

 --------------------------------------
 #SP PBE1PBE/Def2TZVP geom=connectivity
 --------------------------------------

 99/5=1,9=1/99;
 -------------
 Structure: 52
 -------------
 Charge =  0 Multiplicity = 1

                         Standard orientation:
 ---------------------------------------------------------------------
 Center     Atomic      Atomic             Coordinates (Angstroms)
 Number     Number       Type             X           Y           Z
 ---------------------------------------------------------------------
      1          1           0       -3.564174   -0.878967   -0.265202
      2          6           0       -2.624954   -0.728833    0.273292
      3          6           0       -1.585536   -0.022290   -0.595898
      4          1           0       -2.280710   -1.717410    0.591919
      5          1           0       -2.848163   -0.150384    1.173172
      6          1           0       -1.378614   -0.609580   -1.497383
      7         14           0        0.036350    0.305566    0.255115
      8          1           0       -1.974658    0.940877   -0.942832
      9          8           0        0.557975    1.858208    0.065323
     10          8           0        1.098359   -0.776072   -0.376166
     11          1           0       -0.034413    0.146084    1.730152
     12          1           0        0.627905    2.195870   -0.828718
     13          6           0        2.429839   -0.912613    0.061463
     14          1           0        2.884899   -1.747809   -0.475023
     15          1           0        2.478910   -1.122774    1.136617
     16          1           0        3.013356   -0.008500   -0.140714
 ---------------------------------------------------------------------

 SCF Done:  E(RPBE1PBE) =  -560.059447792     A.U. after   12 cycles

 The electronic state is 1-A.
 Alpha  occ. eigenvalues --  -66.25374 -19.20206 -19.20044 -10.26432 -10.21474
 Alpha  occ. eigenvalues --  -10.20704  -5.33044  -3.66569  -3.66453  -3.66319
 Alpha  occ. eigenvalues --   -1.04452  -1.02276  -0.78030  -0.70558  -0.63720
 Alpha  occ. eigenvalues --   -0.56838  -0.51085  -0.46822  -0.46496  -0.45668
 Alpha  occ. eigenvalues --   -0.44180  -0.40486  -0.38480  -0.37714  -0.36359
 Alpha  occ. eigenvalues --   -0.35252  -0.31827  -0.30506  -0.29690
 Alpha virt. eigenvalues --    0.03165   0.04659   0.05474   0.07287   0.09824
 Alpha virt. eigenvalues --    0.10377   0.11266   0.11489   0.12483   0.13126
 Alpha virt. eigenvalues --    0.13594   0.14429   0.16356   0.17417   0.18820

 Mulliken atomic charges:
              1
     1  H    0.124963
     2  C   -0.386422
     3  C   -0.319248
     4  H    0.128417
     5  H    0.127318
     6  H    0.126020
     7  Si   0.550380
     8  H    0.111070
     9  O   -0.529098
    10  O   -0.341217
    11  H   -0.068204
    12  H    0.318708
    13  C   -0.209323
    14  H    0.128559
    15  H    0.117952
    16  H    0.120126
 Sum of Mulliken atomic charges =   0.00000

 Dipole moment (field-independent basis, Debye):
    X=              0.1483    Y=             -0.0187    Z=             -1.1208  Tot=              1.1307
 Quadrupole moment (field-independent basis, Debye-Ang):
   XX=            -41.6290   YY=            -45.9675   ZZ=            -44.9194
   XY=             -1.1244   XZ=             -0.0939   YZ=             -4.2775

 Normal termination of Gaussian 09 at Fri Jun 29 13:38:36 2018.
