 Gaussian 09, Revision C.01,
 Gaussian 09:  EM64L-G09RevC.01 23-Sep-2011

 --------------------------------------
 #SP PBE1PBE/Def2TZVP geom=connectivity
 --------------------------------------

 99/5=1,9=1/99;
 -------------
 Structure: 56
 -------------
 Charge =  0 Multiplicity = 1

                         Standard orientation:
 ---------------------------------------------------------------------
 Center     Atomic      Atomic             Coordinates (Angstroms)
 Number     Number       Type             X           Y           Z
 ---------------------------------------------------------------------
      1          1           0       -3.581179   -0.867444   -0.257629
      2          6           0       -2.657040   -0.674287    0.293105
      3          6           0       -1.567362   -0.110415   -0.617793
      4          1           0       -2.353978   -1.622960    0.746412
      5          1           0       -2.893689    0.019089    1.103930
      6          1           0       -1.347194   -0.812346   -1.429718
      7         14           0        0.033275    0.281157    0.246415
      8          1           0       -1.915043    0.810617   -1.097675
      9          8           0        0.499857    1.850533    0.052239
     10          8           0        1.140322   -0.764901   -0.369124
     11          1           0       -0.045989    0.127330    1.721393
     12          1           0        0.566307    2.185491   -0.843577
     13          6           0        2.471430   -0.850448    0.082691
     14          1           0        2.961127   -1.671277   -0.445187
     15          1           0        2.517336   -1.052640    1.158193
     16          1           0        3.022861    0.073781   -0.118887
 ---------------------------------------------------------------------

 SCF Done:  E(RPBE1PBE) =  -560.059219330     A.U. after   12 cycles

 The electronic state is 1-A.
 Alpha  occ. eigenvalues --  -66.25380 -19.20214 -19.20032 -10.26412 -10.21488
 Alpha  occ. eigenvalues --  -10.20697  -5.33050  -3.66575  -3.66458  -3.66325
 Alpha  occ. eigenvalues --   -1.04436  -1.02269  -0.78036  -0.70565  -0.63709
 Alpha  occ. eigenvalues --   -0.56847  -0.51055  -0.46812  -0.46457  -0.45692
 Alpha  occ. eigenvalues --   -0.44315  -0.40394  -0.38498  -0.37704  -0.36365
 Alpha  occ. eigenvalues --   -0.35267  -0.31812  -0.30493  -0.29701
 Alpha virt. eigenvalues --    0.03173   0.04601   0.05496   0.07200   0.09818
 Alpha virt. eigenvalues --    0.10277   0.11412   0.11516   0.12477   0.13038
 Alpha virt. eigenvalues --    0.13619   0.14429   0.16263   0.17491   0.18959

 Mulliken atomic charges:
              1
     1  H    0.124964
     2  C   -0.386101
     3  C   -0.315990
     4  H    0.127938
     5  H    0.127370
     6  H    0.127681
     7  Si   0.549183
     8  H    0.107346
     9  O   -0.528961
    10  O   -0.342555
    11  H   -0.068123
    12  H    0.318680
    13  C   -0.208001
    14  H    0.128511
    15  H    0.117990
    16  H    0.120067
 Sum of Mulliken atomic charges =   0.00000

 Dipole moment (field-independent basis, Debye):
    X=              0.1568    Y=             -0.0194    Z=             -1.1131  Tot=              1.1243
 Quadrupole moment (field-independent basis, Debye-Ang):
   XX=            -41.5839   YY=            -46.0344   ZZ=            -44.8878
   XY=             -0.8977   XZ=              0.1102   YZ=             -4.2933

 Normal termination of Gaussian 09 at Fri Jun 29 13:55:55 2018.
