 Gaussian 09, Revision C.01,
 Gaussian 09:  EM64L-G09RevC.01 23-Sep-2011

 --------------------------------------
 #SP PBE1PBE/Def2TZVP geom=connectivity
 --------------------------------------

 99/5=1,9=1/99;
 -------------
 Structure: 58
 -------------
 Charge =  0 Multiplicity = 1

                         Standard orientation:
 ---------------------------------------------------------------------
 Center     Atomic      Atomic             Coordinates (Angstroms)
 Number     Number       Type             X           Y           Z
 ---------------------------------------------------------------------
      1          1           0       -3.588870   -0.861389   -0.253801
      2          6           0       -2.672081   -0.645110    0.300610
      3          6           0       -1.558006   -0.156668   -0.624239
      4          1           0       -2.391182   -1.566128    0.820355
      5          1           0       -2.913124    0.102882    1.059962
      6          1           0       -1.333545   -0.913046   -1.384444
      7         14           0        0.032355    0.268967    0.242832
      8          1           0       -1.883438    0.735635   -1.169545
      9          8           0        0.470153    1.845426    0.041423
     10          8           0        1.160061   -0.759483   -0.363182
     11          1           0       -0.048883    0.121551    1.718101
     12          1           0        0.533577    2.176740   -0.855115
     13          6           0        2.491325   -0.817841    0.092043
     14          1           0        2.998277   -1.632832   -0.428334
     15          1           0        2.538057   -1.013168    1.169355
     16          1           0        3.027023    0.114386   -0.112594
 ---------------------------------------------------------------------

 SCF Done:  E(RPBE1PBE) =  -560.059177637     A.U. after   12 cycles

 The electronic state is 1-A.
 Alpha  occ. eigenvalues --  -66.25372 -19.20208 -19.20037 -10.26415 -10.21490
 Alpha  occ. eigenvalues --  -10.20694  -5.33044  -3.66569  -3.66453  -3.66319
 Alpha  occ. eigenvalues --   -1.04454  -1.02290  -0.78036  -0.70580  -0.63702
 Alpha  occ. eigenvalues --   -0.56870  -0.51059  -0.46818  -0.46441  -0.45702
 Alpha  occ. eigenvalues --   -0.44379  -0.40348  -0.38502  -0.37708  -0.36364
 Alpha  occ. eigenvalues --   -0.35283  -0.31815  -0.30499  -0.29698
 Alpha virt. eigenvalues --    0.03189   0.04579   0.05519   0.07159   0.09823
 Alpha virt. eigenvalues --    0.10232   0.11469   0.11574   0.12488   0.13002
 Alpha virt. eigenvalues --    0.13612   0.14435   0.16236   0.17512   0.18998

 Mulliken atomic charges:
              1
     1  H    0.125004
     2  C   -0.385789
     3  C   -0.314190
     4  H    0.127740
     5  H    0.127406
     6  H    0.128168
     7  Si   0.548283
     8  H    0.105675
     9  O   -0.528782
    10  O   -0.342444
    11  H   -0.068353
    12  H    0.318455
    13  C   -0.207724
    14  H    0.128528
    15  H    0.117897
    16  H    0.120126
 Sum of Mulliken atomic charges =   0.00000

 Dipole moment (field-independent basis, Debye):
    X=              0.1643    Y=             -0.0230    Z=             -1.1119  Tot=              1.1243
 Quadrupole moment (field-independent basis, Debye-Ang):
   XX=            -41.5552   YY=            -46.0856   ZZ=            -44.8535
   XY=             -0.7850   XZ=              0.2045   YZ=             -4.2915

 Normal termination of Gaussian 09 at Fri Jun 29 14:04:05 2018.
