 Gaussian 09, Revision C.01,
 Gaussian 09:  EM64L-G09RevC.01 23-Sep-2011

 --------------------------------------
 #SP PBE1PBE/Def2TZVP geom=connectivity
 --------------------------------------

 99/5=1,9=1/99;
 -------------
 Structure: 51
 -------------
 Charge =  0 Multiplicity = 1

                         Standard orientation:
 ---------------------------------------------------------------------
 Center     Atomic      Atomic             Coordinates (Angstroms)
 Number     Number       Type             X           Y           Z
 ---------------------------------------------------------------------
      1          1           0       -3.559660   -0.881918   -0.266980
      2          6           0       -2.616624   -0.741735    0.267509
      3          6           0       -1.590060   -0.001315   -0.588664
      4          1           0       -2.262695   -1.737174    0.552374
      5          1           0       -2.835590   -0.192910    1.186778
      6          1           0       -1.387334   -0.559045   -1.509664
      7         14           0        0.037225    0.311754    0.257595
      8          1           0       -1.988948    0.969277   -0.902205
      9          8           0        0.572363    1.859985    0.066833
     10          8           0        1.087883   -0.779049   -0.377569
     11          1           0       -0.030697    0.151530    1.732310
     12          1           0        0.642056    2.197124   -0.827566
     13          6           0        2.419302   -0.927751    0.056629
     14          1           0        2.865464   -1.766866   -0.481856
     15          1           0        2.468892   -1.138342    1.130681
     16          1           0        3.009683   -0.028919   -0.147167
 ---------------------------------------------------------------------

 SCF Done:  E(RPBE1PBE) =  -560.059530418     A.U. after   12 cycles

 The electronic state is 1-A.
 Alpha  occ. eigenvalues --  -66.25376 -19.20208 -19.20037 -10.26420 -10.21471
 Alpha  occ. eigenvalues --  -10.20709  -5.33045  -3.66570  -3.66454  -3.66320
 Alpha  occ. eigenvalues --   -1.04441  -1.02269  -0.78030  -0.70557  -0.63725
 Alpha  occ. eigenvalues --   -0.56829  -0.51084  -0.46831  -0.46499  -0.45665
 Alpha  occ. eigenvalues --   -0.44144  -0.40508  -0.38485  -0.37722  -0.36355
 Alpha  occ. eigenvalues --   -0.35250  -0.31828  -0.30504  -0.29688
 Alpha virt. eigenvalues --    0.03158   0.04672   0.05471   0.07316   0.09826
 Alpha virt. eigenvalues --    0.10402   0.11224   0.11490   0.12488   0.13158
 Alpha virt. eigenvalues --    0.13581   0.14441   0.16377   0.17392   0.18777

 Mulliken atomic charges:
              1
     1  H    0.124995
     2  C   -0.386539
     3  C   -0.319785
     4  H    0.128586
     5  H    0.127299
     6  H    0.125510
     7  Si   0.550656
     8  H    0.112009
     9  O   -0.529295
    10  O   -0.341218
    11  H   -0.068185
    12  H    0.318792
    13  C   -0.209459
    14  H    0.128486
    15  H    0.118031
    16  H    0.120118
 Sum of Mulliken atomic charges =   0.00000

 Dipole moment (field-independent basis, Debye):
    X=              0.1431    Y=             -0.0194    Z=             -1.1194  Tot=              1.1286
 Quadrupole moment (field-independent basis, Debye-Ang):
   XX=            -41.6451   YY=            -45.9616   ZZ=            -44.9127
   XY=             -1.1825   XZ=             -0.1405   YZ=             -4.2736

 Normal termination of Gaussian 09 at Fri Jun 29 13:34:20 2018.
