 Gaussian 09, Revision C.01,
 Gaussian 09:  EM64L-G09RevC.01 23-Sep-2011

 --------------------------------------
 #SP PBE1PBE/Def2TZVP geom=connectivity
 --------------------------------------

 99/5=1,9=1/99;
 -------------
 Structure: 57
 -------------
 Charge =  0 Multiplicity = 1

                         Standard orientation:
 ---------------------------------------------------------------------
 Center     Atomic      Atomic             Coordinates (Angstroms)
 Number     Number       Type             X           Y           Z
 ---------------------------------------------------------------------
      1          1           0       -3.585254   -0.864029   -0.255733
      2          6           0       -2.664767   -0.659631    0.297055
      3          6           0       -1.562781   -0.133164   -0.621391
      4          1           0       -2.372763   -1.595241    0.783555
      5          1           0       -2.903699    0.061252    1.082835
      6          1           0       -1.340381   -0.862518   -1.408146
      7         14           0        0.032762    0.274946    0.244585
      8          1           0       -1.899361    0.774273   -1.133974
      9          8           0        0.485805    1.848400    0.047288
     10          8           0        1.150192   -0.762395   -0.366527
     11          1           0       -0.047581    0.123225    1.719681
     12          1           0        0.549907    2.182029   -0.849148
     13          6           0        2.481046   -0.834590    0.087651
     14          1           0        2.978996   -1.652358   -0.437167
     15          1           0        2.527478   -1.033559    1.163482
     16          1           0        3.025033    0.093955   -0.115553
 ---------------------------------------------------------------------

 SCF Done:  E(RPBE1PBE) =  -560.059192508     A.U. after   12 cycles

 The electronic state is 1-A.
 Alpha  occ. eigenvalues --  -66.25386 -19.20213 -19.20033 -10.26408 -10.21492
 Alpha  occ. eigenvalues --  -10.20700  -5.33055  -3.66580  -3.66464  -3.66330
 Alpha  occ. eigenvalues --   -1.04442  -1.02266  -0.78040  -0.70569  -0.63708
 Alpha  occ. eigenvalues --   -0.56846  -0.51053  -0.46813  -0.46449  -0.45700
 Alpha  occ. eigenvalues --   -0.44350  -0.40368  -0.38505  -0.37703  -0.36360
 Alpha  occ. eigenvalues --   -0.35272  -0.31811  -0.30494  -0.29704
 Alpha virt. eigenvalues --    0.03176   0.04586   0.05505   0.07181   0.09817
 Alpha virt. eigenvalues --    0.10252   0.11438   0.11537   0.12479   0.13019
 Alpha virt. eigenvalues --    0.13618   0.14436   0.16244   0.17499   0.18982

 Mulliken atomic charges:
              1
     1  H    0.124996
     2  C   -0.385973
     3  C   -0.315036
     4  H    0.127851
     5  H    0.127395
     6  H    0.127980
     7  Si   0.548842
     8  H    0.106498
     9  O   -0.529223
    10  O   -0.342536
    11  H   -0.068129
    12  H    0.318634
    13  C   -0.207788
    14  H    0.128482
    15  H    0.117972
    16  H    0.120035
 Sum of Mulliken atomic charges =   0.00000

 Dipole moment (field-independent basis, Debye):
    X=              0.1556    Y=             -0.0222    Z=             -1.1116  Tot=              1.1226
 Quadrupole moment (field-independent basis, Debye-Ang):
   XX=            -41.5767   YY=            -46.0609   ZZ=            -44.8704
   XY=             -0.8456   XZ=              0.1602   YZ=             -4.2947

 Normal termination of Gaussian 09 at Fri Jun 29 13:59:39 2018.
