 Gaussian 09, Revision C.01,
 Gaussian 09:  EM64L-G09RevC.01 23-Sep-2011

 --------------------------------------
 #SP PBE1PBE/Def2TZVP geom=connectivity
 --------------------------------------

 99/5=1,9=1/99;
 -------------
 Structure: 50
 -------------
 Charge =  0 Multiplicity = 1

                         Standard orientation:
 ---------------------------------------------------------------------
 Center     Atomic      Atomic             Coordinates (Angstroms)
 Number     Number       Type             X           Y           Z
 ---------------------------------------------------------------------
      1          1           0       -3.554767   -0.885177   -0.268944
      2          6           0       -2.607949   -0.754580    0.261272
      3          6           0       -1.594329    0.019086   -0.580810
      4          1           0       -2.244540   -1.755677    0.512375
      5          1           0       -2.822436   -0.235722    1.198817
      6          1           0       -1.396034   -0.508737   -1.520216
      7         14           0        0.038300    0.317903    0.260295
      8          1           0       -2.002779    0.995899   -0.860941
      9          8           0        0.585644    1.861934    0.067286
     10          8           0        1.077361   -0.782137   -0.378037
     11          1           0       -0.025918    0.159039    1.735471
     12          1           0        0.656964    2.197646   -0.827152
     13          6           0        2.408418   -0.942722    0.051050
     14          1           0        2.845197   -1.785537   -0.488338
     15          1           0        2.460363   -1.152995    1.125313
     16          1           0        3.006873   -0.048459   -0.153578
 ---------------------------------------------------------------------

 SCF Done:  E(RPBE1PBE) =  -560.059620987     A.U. after   12 cycles

 The electronic state is 1-A.
 Alpha  occ. eigenvalues --  -66.25385 -19.20204 -19.20045 -10.26424 -10.21467
 Alpha  occ. eigenvalues --  -10.20715  -5.33052  -3.66577  -3.66461  -3.66327
 Alpha  occ. eigenvalues --   -1.04457  -1.02276  -0.78030  -0.70554  -0.63729
 Alpha  occ. eigenvalues --   -0.56829  -0.51105  -0.46826  -0.46521  -0.45659
 Alpha  occ. eigenvalues --   -0.44111  -0.40527  -0.38486  -0.37725  -0.36353
 Alpha  occ. eigenvalues --   -0.35250  -0.31838  -0.30503  -0.29683
 Alpha virt. eigenvalues --    0.03156   0.04686   0.05468   0.07343   0.09829
 Alpha virt. eigenvalues --    0.10427   0.11182   0.11496   0.12492   0.13187
 Alpha virt. eigenvalues --    0.13564   0.14448   0.16394   0.17368   0.18725

 Mulliken atomic charges:
              1
     1  H    0.125029
     2  C   -0.386642
     3  C   -0.320205
     4  H    0.128745
     5  H    0.127294
     6  H    0.124916
     7  Si   0.550973
     8  H    0.112998
     9  O   -0.529495
    10  O   -0.340777
    11  H   -0.068141
    12  H    0.318737
    13  C   -0.209849
    14  H    0.128548
    15  H    0.117944
    16  H    0.119926
 Sum of Mulliken atomic charges =   0.00000

 Dipole moment (field-independent basis, Debye):
    X=              0.1398    Y=             -0.0237    Z=             -1.1207  Tot=              1.1297
 Quadrupole moment (field-independent basis, Debye-Ang):
   XX=            -41.6649   YY=            -45.9645   ZZ=            -44.9058
   XY=             -1.2330   XZ=             -0.1921   YZ=             -4.2633

 Normal termination of Gaussian 09 at Fri Jun 29 13:30:20 2018.
