 Gaussian 09, Revision C.01,
 Gaussian 09:  EM64L-G09RevC.01 23-Sep-2011

 --------------------------------------
 #SP PBE1PBE/Def2TZVP geom=connectivity
 --------------------------------------

 99/5=1,9=1/99;
 -------------
 Structure: 69
 -------------
 Charge =  0 Multiplicity = 1

                         Standard orientation:
 ---------------------------------------------------------------------
 Center     Atomic      Atomic             Coordinates (Angstroms)
 Number     Number       Type             X           Y           Z
 ---------------------------------------------------------------------
      1          1           0       -3.620708   -0.829051   -0.235148
      2          6           0       -2.740544   -0.472068    0.305707
      3          6           0       -1.507949   -0.423907   -0.596220
      4          1           0       -2.594369   -1.147381    1.154176
      5          1           0       -2.976939    0.516614    0.706750
      6          1           0       -1.288707   -1.419778   -0.996939
      7         14           0        0.032005    0.206888    0.236164
      8          1           0       -1.698704    0.217703   -1.463065
      9          8           0        0.309376    1.806107   -0.054191
     10          8           0        1.257336   -0.735056   -0.319735
     11          1           0       -0.032787    0.133318    1.717878
     12          1           0        0.336686    2.092217   -0.968511
     13          6           0        2.588217   -0.633833    0.129338
     14          1           0        3.174184   -1.420989   -0.349148
     15          1           0        2.655064   -0.763494    1.215595
     16          1           0        3.026171    0.334839   -0.129433
 ---------------------------------------------------------------------

 SCF Done:  E(RPBE1PBE) =  -560.059712858     A.U. after   12 cycles

 The electronic state is 1-A.
 Alpha  occ. eigenvalues --  -66.25387 -19.20245 -19.20003 -10.26411 -10.21494
 Alpha  occ. eigenvalues --  -10.20757  -5.33055  -3.66581  -3.66462  -3.66330
 Alpha  occ. eigenvalues --   -1.04431  -1.02283  -0.78061  -0.70585  -0.63697
 Alpha  occ. eigenvalues --   -0.56886  -0.50974  -0.46848  -0.46319  -0.45782
 Alpha  occ. eigenvalues --   -0.44637  -0.40062  -0.38548  -0.37848  -0.36292
 Alpha  occ. eigenvalues --   -0.35436  -0.31832  -0.30481  -0.29670
 Alpha virt. eigenvalues --    0.03147   0.04530   0.05732   0.07039   0.09930
 Alpha virt. eigenvalues --    0.09999   0.11718   0.11885   0.12706   0.12751
 Alpha virt. eigenvalues --    0.13379   0.14604   0.16265   0.17328   0.18910

 Mulliken atomic charges:
              1
     1  H    0.125957
     2  C   -0.381912
     3  C   -0.307215
     4  H    0.127215
     5  H    0.127983
     6  H    0.128148
     7  Si   0.542214
     8  H    0.101797
     9  O   -0.529266
    10  O   -0.342673
    11  H   -0.070218
    12  H    0.318620
    13  C   -0.206648
    14  H    0.128574
    15  H    0.117667
    16  H    0.119756
 Sum of Mulliken atomic charges =   0.00000

 Dipole moment (field-independent basis, Debye):
    X=              0.1528    Y=             -0.0646    Z=             -1.1040  Tot=              1.1164
 Quadrupole moment (field-independent basis, Debye-Ang):
   XX=            -41.4842   YY=            -46.5964   ZZ=            -44.4006
   XY=             -0.1795   XZ=              0.6571   YZ=             -4.2212

 Normal termination of Gaussian 09 at Fri Jun 29 14:52:32 2018.
