 Gaussian 09, Revision C.01,
 Gaussian 09:  EM64L-G09RevC.01 23-Sep-2011

 --------------------------------------
 #SP PBE1PBE/Def2TZVP geom=connectivity
 --------------------------------------

 99/5=1,9=1/99;
 -------------
 Structure: 66
 -------------
 Charge =  0 Multiplicity = 1

                         Standard orientation:
 ---------------------------------------------------------------------
 Center     Atomic      Atomic             Coordinates (Angstroms)
 Number     Number       Type             X           Y           Z
 ---------------------------------------------------------------------
      1          1           0       -3.613973   -0.837764   -0.239030
      2          6           0       -2.724631   -0.520337    0.311387
      3          6           0       -1.521204   -0.350645   -0.614924
      4          1           0       -2.539979   -1.277674    1.079279
      5          1           0       -2.967296    0.415314    0.821171
      6          1           0       -1.295535   -1.293855   -1.124659
      7         14           0        0.031224    0.222871    0.235531
      8          1           0       -1.750331    0.374134   -1.403381
      9          8           0        0.352316    1.819127   -0.024297
     10          8           0        1.233701   -0.741352   -0.333179
     11          1           0       -0.041666    0.123563    1.715222
     12          1           0        0.392278    2.121032   -0.932177
     13          6           0        2.563907   -0.684099    0.123593
     14          1           0        3.131295   -1.477805   -0.367209
     15          1           0        2.621787   -0.835892    1.207798
     16          1           0        3.029709    0.277036   -0.114978
 ---------------------------------------------------------------------

 SCF Done:  E(RPBE1PBE) =  -560.059451000     A.U. after   12 cycles

 The electronic state is 1-A.
 Alpha  occ. eigenvalues --  -66.25394 -19.20230 -19.20013 -10.26410 -10.21500
 Alpha  occ. eigenvalues --  -10.20738  -5.33062  -3.66588  -3.66470  -3.66337
 Alpha  occ. eigenvalues --   -1.04449  -1.02301  -0.78058  -0.70569  -0.63699
 Alpha  occ. eigenvalues --   -0.56897  -0.51003  -0.46834  -0.46350  -0.45764
 Alpha  occ. eigenvalues --   -0.44585  -0.40145  -0.38541  -0.37791  -0.36324
 Alpha  occ. eigenvalues --   -0.35385  -0.31817  -0.30483  -0.29685
 Alpha virt. eigenvalues --    0.03176   0.04520   0.05655   0.07057   0.09883
 Alpha virt. eigenvalues --    0.10059   0.11651   0.11802   0.12628   0.12819
 Alpha virt. eigenvalues --    0.13450   0.14552   0.16226   0.17421   0.18964

 Mulliken atomic charges:
              1
     1  H    0.125620
     2  C   -0.383374
     3  C   -0.308029
     4  H    0.127322
     5  H    0.127848
     6  H    0.128632
     7  Si   0.544077
     8  H    0.101814
     9  O   -0.529055
    10  O   -0.342951
    11  H   -0.069547
    12  H    0.318389
    13  C   -0.206614
    14  H    0.128455
    15  H    0.117609
    16  H    0.119802
 Sum of Mulliken atomic charges =   0.00000

 Dipole moment (field-independent basis, Debye):
    X=              0.1537    Y=             -0.0494    Z=             -1.1034  Tot=              1.1151
 Quadrupole moment (field-independent basis, Debye-Ang):
   XX=            -41.5128   YY=            -46.4320   ZZ=            -44.5550
   XY=             -0.3343   XZ=              0.5508   YZ=             -4.2547

 Normal termination of Gaussian 09 at Fri Jun 29 14:40:23 2018.
