 Gaussian 09, Revision C.01,
 Gaussian 09:  EM64L-G09RevC.01 23-Sep-2011

 --------------------------------------
 #SP PBE1PBE/Def2TZVP geom=connectivity
 --------------------------------------

 99/5=1,9=1/99;
 -------------
 Structure: 62
 -------------
 Charge =  0 Multiplicity = 1

                         Standard orientation:
 ---------------------------------------------------------------------
 Center     Atomic      Atomic             Coordinates (Angstroms)
 Number     Number       Type             X           Y           Z
 ---------------------------------------------------------------------
      1          1           0       -3.602584   -0.849777   -0.245919
      2          6           0       -2.699968   -0.584209    0.310326
      3          6           0       -1.539459   -0.252560   -0.626857
      4          1           0       -2.465695   -1.433910    0.958737
      5          1           0       -2.945137    0.264776    0.953231
      6          1           0       -1.311077   -1.109549   -1.270141
      7         14           0        0.031207    0.245396    0.237594
      8          1           0       -1.818175    0.566387   -1.298506
      9          8           0        0.410885    1.834179    0.012462
     10          8           0        1.198280   -0.749853   -0.349869
     11          1           0       -0.048786    0.117406    1.715554
     12          1           0        0.464323    2.153650   -0.888968
     13          6           0        2.529463   -0.751885    0.110292
     14          1           0        3.067598   -1.555552   -0.396927
     15          1           0        2.579251   -0.928873    1.190801
     16          1           0        3.029853    0.197204   -0.107486
 ---------------------------------------------------------------------

 SCF Done:  E(RPBE1PBE) =  -560.059236013     A.U. after   12 cycles

 The electronic state is 1-A.
 Alpha  occ. eigenvalues --  -66.25390 -19.20216 -19.20026 -10.26426 -10.21497
 Alpha  occ. eigenvalues --  -10.20711  -5.33058  -3.66583  -3.66467  -3.66333
 Alpha  occ. eigenvalues --   -1.04439  -1.02284  -0.78046  -0.70574  -0.63698
 Alpha  occ. eigenvalues --   -0.56874  -0.51020  -0.46819  -0.46392  -0.45732
 Alpha  occ. eigenvalues --   -0.44490  -0.40244  -0.38519  -0.37730  -0.36348
 Alpha  occ. eigenvalues --   -0.35325  -0.31816  -0.30491  -0.29696
 Alpha virt. eigenvalues --    0.03188   0.04538   0.05575   0.07096   0.09841
 Alpha virt. eigenvalues --    0.10137   0.11547   0.11692   0.12536   0.12910
 Alpha virt. eigenvalues --    0.13540   0.14481   0.16198   0.17497   0.19013

 Mulliken atomic charges:
              1
     1  H    0.125233
     2  C   -0.384806
     3  C   -0.310582
     4  H    0.127471
     5  H    0.127610
     6  H    0.128742
     7  Si   0.546214
     8  H    0.103086
     9  O   -0.529065
    10  O   -0.342982
    11  H   -0.068847
    12  H    0.318392
    13  C   -0.206986
    14  H    0.128565
    15  H    0.117877
    16  H    0.120079
 Sum of Mulliken atomic charges =   0.00000

 Dipole moment (field-independent basis, Debye):
    X=              0.1645    Y=             -0.0361    Z=             -1.1071  Tot=              1.1198
 Quadrupole moment (field-independent basis, Debye-Ang):
   XX=            -41.5255   YY=            -46.2362   ZZ=            -44.7332
   XY=             -0.5629   XZ=              0.3908   YZ=             -4.2850

 Normal termination of Gaussian 09 at Fri Jun 29 14:23:25 2018.
