 Gaussian 09, Revision C.01,
 Gaussian 09:  EM64L-G09RevC.01 23-Sep-2011

 --------------------------------------
 #SP PBE1PBE/Def2TZVP geom=connectivity
 --------------------------------------

 99/5=1,9=1/99;
 -------------
 Structure: 65
 -------------
 Charge =  0 Multiplicity = 1

                         Standard orientation:
 ---------------------------------------------------------------------
 Center     Atomic      Atomic             Coordinates (Angstroms)
 Number     Number       Type             X           Y           Z
 ---------------------------------------------------------------------
      1          1           0       -3.611450   -0.840832   -0.240533
      2          6           0       -2.718849   -0.536576    0.312042
      3          6           0       -1.525825   -0.326115   -0.619347
      4          1           0       -2.521517   -1.318975    1.051114
      5          1           0       -2.962726    0.378946    0.856611
      6          1           0       -1.298892   -1.249312   -1.163967
      7         14           0        0.031068    0.228257    0.235627
      8          1           0       -1.767614    0.424152   -1.379680
      9          8           0        0.366905    1.823752   -0.014388
     10          8           0        1.225089   -0.743218   -0.337348
     11          1           0       -0.043749    0.121492    1.714822
     12          1           0        0.411052    2.130226   -0.921041
     13          6           0        2.555758   -0.701440    0.120909
     14          1           0        3.115582   -1.497335   -0.374840
     15          1           0        2.611995   -0.860302    1.203467
     16          1           0        3.029918    0.256861   -0.112467
 ---------------------------------------------------------------------

 SCF Done:  E(RPBE1PBE) =  -560.059380986     A.U. after   12 cycles

 The electronic state is 1-A.
 Alpha  occ. eigenvalues --  -66.25394 -19.20222 -19.20018 -10.26410 -10.21501
 Alpha  occ. eigenvalues --  -10.20733  -5.33061  -3.66587  -3.66470  -3.66336
 Alpha  occ. eigenvalues --   -1.04441  -1.02276  -0.78057  -0.70583  -0.63700
 Alpha  occ. eigenvalues --   -0.56872  -0.51005  -0.46836  -0.46363  -0.45756
 Alpha  occ. eigenvalues --   -0.44566  -0.40163  -0.38538  -0.37770  -0.36324
 Alpha  occ. eigenvalues --   -0.35366  -0.31817  -0.30488  -0.29691
 Alpha virt. eigenvalues --    0.03178   0.04522   0.05633   0.07065   0.09869
 Alpha virt. eigenvalues --    0.10075   0.11628   0.11775   0.12601   0.12841
 Alpha virt. eigenvalues --    0.13474   0.14536   0.16211   0.17445   0.18980

 Mulliken atomic charges:
              1
     1  H    0.125515
     2  C   -0.383777
     3  C   -0.308467
     4  H    0.127349
     5  H    0.127818
     6  H    0.128705
     7  Si   0.544574
     8  H    0.102038
     9  O   -0.529410
    10  O   -0.342887
    11  H   -0.069412
    12  H    0.318388
    13  C   -0.206595
    14  H    0.128476
    15  H    0.117782
    16  H    0.119903
 Sum of Mulliken atomic charges =   0.00000

 Dipole moment (field-independent basis, Debye):
    X=              0.1589    Y=             -0.0514    Z=             -1.1050  Tot=              1.1175
 Quadrupole moment (field-independent basis, Debye-Ang):
   XX=            -41.5053   YY=            -46.3872   ZZ=            -44.6007
   XY=             -0.3941   XZ=              0.5137   YZ=             -4.2666

 Normal termination of Gaussian 09 at Fri Jun 29 14:36:25 2018.
