 Gaussian 09, Revision C.01,
 Gaussian 09:  EM64L-G09RevC.01 23-Sep-2011

 --------------------------------------
 #SP PBE1PBE/Def2TZVP geom=connectivity
 --------------------------------------

 99/5=1,9=1/99;
 -------------
 Structure: 68
 -------------
 Charge =  0 Multiplicity = 1

                         Standard orientation:
 ---------------------------------------------------------------------
 Center     Atomic      Atomic             Coordinates (Angstroms)
 Number     Number       Type             X           Y           Z
 ---------------------------------------------------------------------
      1          1           0       -3.618450   -0.832078   -0.236244
      2          6           0       -2.735332   -0.488200    0.308274
      3          6           0       -1.512134   -0.399719   -0.603341
      4          1           0       -2.576224   -1.191909    1.130947
      5          1           0       -2.974283    0.484083    0.746199
      6          1           0       -1.290283   -1.379317   -1.041030
      7         14           0        0.031814    0.212151    0.235745
      8          1           0       -1.715777    0.270643   -1.445133
      9          8           0        0.323229    1.810741   -0.044075
     10          8           0        1.249454   -0.737028   -0.324678
     11          1           0       -0.036315    0.129598    1.717160
     12          1           0        0.356361    2.102649   -0.956606
     13          6           0        2.580143   -0.650715    0.128323
     14          1           0        3.160361   -1.439761   -0.354537
     15          1           0        2.643876   -0.787811    1.213537
     16          1           0        3.027814    0.315892   -0.124235
 ---------------------------------------------------------------------

 SCF Done:  E(RPBE1PBE) =  -560.059619817     A.U. after   12 cycles

 The electronic state is 1-A.
 Alpha  occ. eigenvalues --  -66.25389 -19.20243 -19.20012 -10.26419 -10.21492
 Alpha  occ. eigenvalues --  -10.20745  -5.33057  -3.66582  -3.66464  -3.66331
 Alpha  occ. eigenvalues --   -1.04433  -1.02278  -0.78056  -0.70582  -0.63693
 Alpha  occ. eigenvalues --   -0.56883  -0.50982  -0.46840  -0.46330  -0.45771
 Alpha  occ. eigenvalues --   -0.44618  -0.40083  -0.38544  -0.37825  -0.36301
 Alpha  occ. eigenvalues --   -0.35414  -0.31833  -0.30481  -0.29677
 Alpha virt. eigenvalues --    0.03152   0.04528   0.05706   0.07043   0.09914
 Alpha virt. eigenvalues --    0.10016   0.11693   0.11849   0.12688   0.12763
 Alpha virt. eigenvalues --    0.13399   0.14587   0.16252   0.17362   0.18932

 Mulliken atomic charges:
              1
     1  H    0.125823
     2  C   -0.382475
     3  C   -0.307260
     4  H    0.127225
     5  H    0.127946
     6  H    0.128293
     7  Si   0.542772
     8  H    0.101680
     9  O   -0.529393
    10  O   -0.342694
    11  H   -0.069971
    12  H    0.318662
    13  C   -0.206710
    14  H    0.128572
    15  H    0.117797
    16  H    0.119732
 Sum of Mulliken atomic charges =   0.00000

 Dipole moment (field-independent basis, Debye):
    X=              0.1594    Y=             -0.0596    Z=             -1.1027  Tot=              1.1158
 Quadrupole moment (field-independent basis, Debye-Ang):
   XX=            -41.4906   YY=            -46.5396   ZZ=            -44.4532
   XY=             -0.2288   XZ=              0.6237   YZ=             -4.2380

 Normal termination of Gaussian 09 at Fri Jun 29 14:49:08 2018.
