 Gaussian 09, Revision C.01,
 Gaussian 09:  EM64L-G09RevC.01 23-Sep-2011

 --------------------------------------
 #SP PBE1PBE/Def2TZVP geom=connectivity
 --------------------------------------

 99/5=1,9=1/99;
 -------------
 Structure: 64
 -------------
 Charge =  0 Multiplicity = 1

                         Standard orientation:
 ---------------------------------------------------------------------
 Center     Atomic      Atomic             Coordinates (Angstroms)
 Number     Number       Type             X           Y           Z
 ---------------------------------------------------------------------
      1          1           0       -3.608606   -0.843538   -0.242021
      2          6           0       -2.712713   -0.552164    0.312168
      3          6           0       -1.530241   -0.301581   -0.622740
      4          1           0       -2.502991   -1.358029    1.022035
      5          1           0       -2.957368    0.342434    0.890138
      6          1           0       -1.302478   -1.203965   -1.200864
      7         14           0        0.031176    0.234037    0.235931
      8          1           0       -1.784411    0.472590   -1.354537
      9          8           0        0.381928    1.827103   -0.005043
     10          8           0        1.215841   -0.745915   -0.341525
     11          1           0       -0.046362    0.120403    1.714818
     12          1           0        0.429176    2.137615   -0.911302
     13          6           0        2.546671   -0.717949    0.117441
     14          1           0        3.099996   -1.516925   -0.380647
     15          1           0        2.601259   -0.883169    1.200800
     16          1           0        3.030870    0.236721   -0.110116
 ---------------------------------------------------------------------

 SCF Done:  E(RPBE1PBE) =  -560.059321074     A.U. after   12 cycles

 The electronic state is 1-A.
 Alpha  occ. eigenvalues --  -66.25387 -19.20238 -19.20033 -10.26430 -10.21498
 Alpha  occ. eigenvalues --  -10.20723  -5.33056  -3.66581  -3.66465  -3.66331
 Alpha  occ. eigenvalues --   -1.04449  -1.02274  -0.78051  -0.70575  -0.63697
 Alpha  occ. eigenvalues --   -0.56860  -0.51012  -0.46827  -0.46369  -0.45747
 Alpha  occ. eigenvalues --   -0.44539  -0.40199  -0.38524  -0.37753  -0.36336
 Alpha  occ. eigenvalues --   -0.35352  -0.31820  -0.30498  -0.29692
 Alpha virt. eigenvalues --    0.03166   0.04529   0.05614   0.07069   0.09857
 Alpha virt. eigenvalues --    0.10093   0.11598   0.11747   0.12577   0.12866
 Alpha virt. eigenvalues --    0.13496   0.14509   0.16206   0.17468   0.18994

 Mulliken atomic charges:
              1
     1  H    0.125401
     2  C   -0.384157
     3  C   -0.309107
     4  H    0.127389
     5  H    0.127742
     6  H    0.128750
     7  Si   0.544880
     8  H    0.102241
     9  O   -0.529132
    10  O   -0.342678
    11  H   -0.069232
    12  H    0.318613
    13  C   -0.207013
    14  H    0.128556
    15  H    0.117688
    16  H    0.120057
 Sum of Mulliken atomic charges =   0.00000

 Dipole moment (field-independent basis, Debye):
    X=              0.1623    Y=             -0.0437    Z=             -1.1092  Tot=              1.1219
 Quadrupole moment (field-independent basis, Debye-Ang):
   XX=            -41.5139   YY=            -46.3393   ZZ=            -44.6491
   XY=             -0.4481   XZ=              0.4703   YZ=             -4.2763

 Normal termination of Gaussian 09 at Fri Jun 29 14:31:52 2018.
