 Gaussian 09, Revision C.01,
 Gaussian 09:  EM64L-G09RevC.01 23-Sep-2011

 --------------------------------------
 #SP PBE1PBE/Def2TZVP geom=connectivity
 --------------------------------------

 99/5=1,9=1/99;
 -------------
 Structure: 60
 -------------
 Charge =  0 Multiplicity = 1

                         Standard orientation:
 ---------------------------------------------------------------------
 Center     Atomic      Atomic             Coordinates (Angstroms)
 Number     Number       Type             X           Y           Z
 ---------------------------------------------------------------------
      1          1           0       -3.596038   -0.855483   -0.249979
      2          6           0       -2.686449   -0.615060    0.306343
      3          6           0       -1.548718   -0.204053   -0.627320
      4          1           0       -2.428502   -1.503154    0.891209
      5          1           0       -2.930369    0.184895    1.009753
      6          1           0       -1.321483   -1.012211   -1.331342
      7         14           0        0.031612    0.257056    0.239952
      8          1           0       -1.851138    0.654286   -1.236636
      9          8           0        0.440801    1.840457    0.028119
     10          8           0        1.179596   -0.754700   -0.356911
     11          1           0       -0.049895    0.117542    1.716452
     12          1           0        0.499369    2.166486   -0.870638
     13          6           0        2.510449   -0.785428    0.101314
     14          1           0        3.033401   -1.593610   -0.412305
     15          1           0        2.557908   -0.971825    1.180923
     16          1           0        3.029315    0.155485   -0.108449
 ---------------------------------------------------------------------

 SCF Done:  E(RPBE1PBE) =  -560.059186983     A.U. after   12 cycles

 The electronic state is 1-A.
 Alpha  occ. eigenvalues --  -66.25391 -19.20213 -19.20033 -10.26414 -10.21497
 Alpha  occ. eigenvalues --  -10.20705  -5.33060  -3.66585  -3.66468  -3.66335
 Alpha  occ. eigenvalues --   -1.04453  -1.02287  -0.78044  -0.70576  -0.63702
 Alpha  occ. eigenvalues --   -0.56869  -0.51042  -0.46812  -0.46432  -0.45720
 Alpha  occ. eigenvalues --   -0.44439  -0.40297  -0.38513  -0.37714  -0.36356
 Alpha  occ. eigenvalues --   -0.35302  -0.31815  -0.30492  -0.29698
 Alpha virt. eigenvalues --    0.03189   0.04554   0.05541   0.07127   0.09828
 Alpha virt. eigenvalues --    0.10185   0.11506   0.11632   0.12505   0.12959
 Alpha virt. eigenvalues --    0.13586   0.14452   0.16210   0.17508   0.19014

 Mulliken atomic charges:
              1
     1  H    0.125113
     2  C   -0.385368
     3  C   -0.312330
     4  H    0.127611
     5  H    0.127498
     6  H    0.128569
     7  Si   0.547423
     8  H    0.104273
     9  O   -0.529064
    10  O   -0.342747
    11  H   -0.068457
    12  H    0.318415
    13  C   -0.207263
    14  H    0.128581
    15  H    0.117718
    16  H    0.120029
 Sum of Mulliken atomic charges =   0.00000

 Dipole moment (field-independent basis, Debye):
    X=              0.1615    Y=             -0.0294    Z=             -1.1102  Tot=              1.1223
 Quadrupole moment (field-independent basis, Debye-Ang):
   XX=            -41.5439   YY=            -46.1593   ZZ=            -44.7997
   XY=             -0.6747   XZ=              0.2958   YZ=             -4.2877

 Normal termination of Gaussian 09 at Fri Jun 29 14:15:47 2018.
