 Gaussian 09, Revision C.01,
 Gaussian 09:  EM64L-G09RevC.01 23-Sep-2011

 --------------------------------------
 #SP PBE1PBE/Def2TZVP geom=connectivity
 --------------------------------------

 99/5=1,9=1/99;
 ------------
 Structure: 6
 ------------
 Charge =  0 Multiplicity = 1

                         Standard orientation:
 ---------------------------------------------------------------------
 Center     Atomic      Atomic             Coordinates (Angstroms)
 Number     Number       Type             X           Y           Z
 ---------------------------------------------------------------------
      1          1           0       -3.272220   -1.135944   -0.359474
      2          6           0       -2.189960   -1.080406   -0.217075
      3          6           0       -1.735864    0.346197    0.089007
      4          1           0       -1.729659   -1.463343   -1.132934
      5          1           0       -1.927550   -1.762641    0.595271
      6          1           0       -2.013109    1.019280   -0.729832
      7         14           0        0.092911    0.527080    0.380700
      8          1           0       -2.249145    0.723303    0.979963
      9          8           0        0.735604    1.844321   -0.373890
     10          8           0        0.769789   -0.871771   -0.150049
     11          1           0        0.438078    0.747525    1.808548
     12          1           0        0.584296    1.933182   -1.315641
     13          6           0        2.141272   -1.170898   -0.033436
     14          1           0        2.304037   -2.186775   -0.398390
     15          1           0        2.475094   -1.119921    1.009433
     16          1           0        2.753589   -0.483540   -0.626200
 ---------------------------------------------------------------------

 SCF Done:  E(RPBE1PBE) =  -560.058986321     A.U. after   12 cycles

 The electronic state is 1-A.
 Alpha  occ. eigenvalues --  -66.25383 -19.20229 -19.20045 -10.26469 -10.21002
 Alpha  occ. eigenvalues --  -10.20787  -5.33051  -3.66582  -3.66463  -3.66320
 Alpha  occ. eigenvalues --   -1.04472  -1.02302  -0.77859  -0.70451  -0.63738
 Alpha  occ. eigenvalues --   -0.56716  -0.51214  -0.47052  -0.46808  -0.45483
 Alpha  occ. eigenvalues --   -0.42551  -0.40877  -0.38967  -0.37895  -0.35896
 Alpha  occ. eigenvalues --   -0.35170  -0.31702  -0.30659  -0.29528
 Alpha virt. eigenvalues --    0.03173   0.04251   0.05628   0.08292   0.08671
 Alpha virt. eigenvalues --    0.10622   0.11091   0.11704   0.12281   0.13242
 Alpha virt. eigenvalues --    0.14259   0.14755   0.15415   0.18359   0.19480

 Mulliken atomic charges:
              1
     1  H    0.120092
     2  C   -0.347605
     3  C   -0.343747
     4  H    0.124991
     5  H    0.120133
     6  H    0.109574
     7  Si   0.550166
     8  H    0.124148
     9  O   -0.529647
    10  O   -0.329758
    11  H   -0.066606
    12  H    0.317520
    13  C   -0.214731
    14  H    0.127900
    15  H    0.118239
    16  H    0.119331
 Sum of Mulliken atomic charges =   0.00000

 Dipole moment (field-independent basis, Debye):
    X=             -0.1183    Y=             -0.3419    Z=             -1.0694  Tot=              1.1290
 Quadrupole moment (field-independent basis, Debye-Ang):
   XX=            -42.8921   YY=            -47.7939   ZZ=            -42.6726
   XY=             -3.2713   XZ=             -0.8486   YZ=             -3.1831

 Normal termination of Gaussian 09 at Fri Jun 29 14:57:28 2018.
