 Gaussian 09, Revision C.01,
 Gaussian 09:  EM64L-G09RevC.01 23-Sep-2011

 --------------------------------------
 #SP PBE1PBE/Def2TZVP geom=connectivity
 --------------------------------------

 99/5=1,9=1/99;
 -------------
 Structure: 61
 -------------
 Charge =  0 Multiplicity = 1

                         Standard orientation:
 ---------------------------------------------------------------------
 Center     Atomic      Atomic             Coordinates (Angstroms)
 Number     Number       Type             X           Y           Z
 ---------------------------------------------------------------------
      1          1           0       -3.599547   -0.852289   -0.247815
      2          6           0       -2.693410   -0.599544    0.308677
      3          6           0       -1.544200   -0.228056   -0.627485
      4          1           0       -2.447263   -1.469197    0.925467
      5          1           0       -2.938025    0.225304    0.982472
      6          1           0       -1.316321   -1.061008   -1.301774
      7         14           0        0.031360    0.251092    0.238686
      8          1           0       -1.834806    0.611342   -1.268131
      9          8           0        0.426176    1.836985    0.020595
     10          8           0        1.189021   -0.752040   -0.354036
     11          1           0       -0.049532    0.117487    1.715597
     12          1           0        0.482186    2.160322   -0.879355
     13          6           0        2.519882   -0.768533    0.106506
     14          1           0        3.050428   -1.574808   -0.404941
     15          1           0        2.568932   -0.951303    1.185968
     16          1           0        3.029692    0.176094   -0.107751
 ---------------------------------------------------------------------

 SCF Done:  E(RPBE1PBE) =  -560.059207662     A.U. after   12 cycles

 The electronic state is 1-A.
 Alpha  occ. eigenvalues --  -66.25383 -19.20211 -19.20029 -10.26421 -10.21497
 Alpha  occ. eigenvalues --  -10.20706  -5.33053  -3.66578  -3.66462  -3.66328
 Alpha  occ. eigenvalues --   -1.04442  -1.02282  -0.78044  -0.70573  -0.63699
 Alpha  occ. eigenvalues --   -0.56875  -0.51028  -0.46819  -0.46399  -0.45724
 Alpha  occ. eigenvalues --   -0.44465  -0.40268  -0.38517  -0.37725  -0.36351
 Alpha  occ. eigenvalues --   -0.35311  -0.31812  -0.30491  -0.29702
 Alpha virt. eigenvalues --    0.03191   0.04546   0.05556   0.07110   0.09834
 Alpha virt. eigenvalues --    0.10159   0.11524   0.11663   0.12519   0.12934
 Alpha virt. eigenvalues --    0.13567   0.14470   0.16203   0.17507   0.19016

 Mulliken atomic charges:
              1
     1  H    0.125166
     2  C   -0.385087
     3  C   -0.311514
     4  H    0.127525
     5  H    0.127544
     6  H    0.128680
     7  Si   0.546839
     8  H    0.103641
     9  O   -0.529008
    10  O   -0.342930
    11  H   -0.068639
    12  H    0.318413
    13  C   -0.207148
    14  H    0.128503
    15  H    0.117899
    16  H    0.120116
 Sum of Mulliken atomic charges =   0.00000

 Dipole moment (field-independent basis, Debye):
    X=              0.1629    Y=             -0.0319    Z=             -1.1061  Tot=              1.1185
 Quadrupole moment (field-independent basis, Debye-Ang):
   XX=            -41.5358   YY=            -46.1925   ZZ=            -44.7665
   XY=             -0.6183   XZ=              0.3479   YZ=             -4.2904

 Normal termination of Gaussian 09 at Fri Jun 29 14:19:43 2018.
