 Gaussian 09, Revision C.01,
 Gaussian 09:  EM64L-G09RevC.01 23-Sep-2011

 --------------------------------------
 #SP PBE1PBE/Def2TZVP geom=connectivity
 --------------------------------------

 99/5=1,9=1/99;
 -------------
 Structure: 67
 -------------
 Charge =  0 Multiplicity = 1

                         Standard orientation:
 ---------------------------------------------------------------------
 Center     Atomic      Atomic             Coordinates (Angstroms)
 Number     Number       Type             X           Y           Z
 ---------------------------------------------------------------------
      1          1           0       -3.616439   -0.834823   -0.237378
      2          6           0       -2.730201   -0.504162    0.310248
      3          6           0       -1.516784   -0.375285   -0.609587
      4          1           0       -2.558256   -1.235188    1.106080
      5          1           0       -2.971146    0.450478    0.784397
      6          1           0       -1.292887   -1.337363   -1.083589
      7         14           0        0.031420    0.217432    0.235385
      8          1           0       -1.733234    0.322778   -1.425263
      9          8           0        0.338030    1.815197   -0.034010
     10          8           0        1.241428   -0.739150   -0.328896
     11          1           0       -0.039384    0.126677    1.716066
     12          1           0        0.374596    2.111728   -0.944848
     13          6           0        2.572567   -0.667505    0.126161
     14          1           0        3.145496   -1.459698   -0.360617
     15          1           0        2.633100   -0.812214    1.211318
     16          1           0        3.029119    0.296916   -0.119232
 ---------------------------------------------------------------------

 SCF Done:  E(RPBE1PBE) =  -560.059533444     A.U. after   12 cycles

 The electronic state is 1-A.
 Alpha  occ. eigenvalues --  -66.25389 -19.20237 -19.20014 -10.26433 -10.21496
 Alpha  occ. eigenvalues --  -10.20742  -5.33056  -3.66582  -3.66464  -3.66331
 Alpha  occ. eigenvalues --   -1.04427  -1.02273  -0.78057  -0.70575  -0.63695
 Alpha  occ. eigenvalues --   -0.56872  -0.50980  -0.46832  -0.46332  -0.45768
 Alpha  occ. eigenvalues --   -0.44600  -0.40112  -0.38541  -0.37804  -0.36310
 Alpha  occ. eigenvalues --   -0.35399  -0.31828  -0.30486  -0.29681
 Alpha virt. eigenvalues --    0.03160   0.04524   0.05679   0.07045   0.09897
 Alpha virt. eigenvalues --    0.10033   0.11674   0.11825   0.12658   0.12784
 Alpha virt. eigenvalues --    0.13420   0.14564   0.16233   0.17393   0.18948

 Mulliken atomic charges:
              1
     1  H    0.125717
     2  C   -0.382945
     3  C   -0.307543
     4  H    0.127274
     5  H    0.127911
     6  H    0.128474
     7  Si   0.543262
     8  H    0.101703
     9  O   -0.529350
    10  O   -0.342804
    11  H   -0.069832
    12  H    0.318569
    13  C   -0.206723
    14  H    0.128630
    15  H    0.117773
    16  H    0.119885
 Sum of Mulliken atomic charges =   0.00000

 Dipole moment (field-independent basis, Debye):
    X=              0.1593    Y=             -0.0577    Z=             -1.1042  Tot=              1.1171
 Quadrupole moment (field-independent basis, Debye-Ang):
   XX=            -41.4930   YY=            -46.4893   ZZ=            -44.5059
   XY=             -0.2857   XZ=              0.5889   YZ=             -4.2479

 Normal termination of Gaussian 09 at Fri Jun 29 14:44:55 2018.
