 Gaussian 09, Revision C.01,
 Gaussian 09:  EM64L-G09RevC.01 23-Sep-2011

 --------------------------------------
 #SP PBE1PBE/Def2TZVP geom=connectivity
 --------------------------------------

 99/5=1,9=1/99;
 -------------
 Structure: 63
 -------------
 Charge =  0 Multiplicity = 1

                         Standard orientation:
 ---------------------------------------------------------------------
 Center     Atomic      Atomic             Coordinates (Angstroms)
 Number     Number       Type             X           Y           Z
 ---------------------------------------------------------------------
      1          1           0       -3.605794   -0.846442   -0.243774
      2          6           0       -2.706530   -0.568033    0.311619
      3          6           0       -1.534911   -0.277076   -0.625256
      4          1           0       -2.484516   -1.396378    0.991229
      5          1           0       -2.951549    0.304379    0.922416
      6          1           0       -1.306732   -1.157385   -1.236316
      7         14           0        0.031153    0.239620    0.236541
      8          1           0       -1.801370    0.520036   -1.327453
      9          8           0        0.396787    1.830818    0.004055
     10          8           0        1.206948   -0.747893   -0.345674
     11          1           0       -0.047840    0.118872    1.713995
     12          1           0        0.447016    2.146057   -0.900472
     13          6           0        2.537970   -0.735280    0.114224
     14          1           0        3.084429   -1.536472   -0.388631
     15          1           0        2.590132   -0.905733    1.195630
     16          1           0        3.031025    0.217322   -0.108761
 ---------------------------------------------------------------------

 SCF Done:  E(RPBE1PBE) =  -560.059273407     A.U. after   12 cycles

 The electronic state is 1-A.
 Alpha  occ. eigenvalues --  -66.25380 -19.20230 -19.20032 -10.26437 -10.21498
 Alpha  occ. eigenvalues --  -10.20716  -5.33051  -3.66576  -3.66459  -3.66325
 Alpha  occ. eigenvalues --   -1.04441  -1.02263  -0.78049  -0.70573  -0.63697
 Alpha  occ. eigenvalues --   -0.56854  -0.51014  -0.46814  -0.46384  -0.45739
 Alpha  occ. eigenvalues --   -0.44515  -0.40218  -0.38527  -0.37741  -0.36337
 Alpha  occ. eigenvalues --   -0.35336  -0.31820  -0.30494  -0.29697
 Alpha virt. eigenvalues --    0.03170   0.04533   0.05596   0.07079   0.09847
 Alpha virt. eigenvalues --    0.10114   0.11573   0.11722   0.12555   0.12886
 Alpha virt. eigenvalues --    0.13518   0.14497   0.16200   0.17486   0.19005

 Mulliken atomic charges:
              1
     1  H    0.125317
     2  C   -0.384513
     3  C   -0.309789
     4  H    0.127416
     5  H    0.127682
     6  H    0.128762
     7  Si   0.545553
     8  H    0.102614
     9  O   -0.529288
    10  O   -0.342685
    11  H   -0.069063
    12  H    0.318615
    13  C   -0.207084
    14  H    0.128566
    15  H    0.117913
    16  H    0.119983
 Sum of Mulliken atomic charges =   0.00000

 Dipole moment (field-independent basis, Debye):
    X=              0.1631    Y=             -0.0416    Z=             -1.1075  Tot=              1.1202
 Quadrupole moment (field-independent basis, Debye-Ang):
   XX=            -41.5199   YY=            -46.2890   ZZ=            -44.6881
   XY=             -0.5093   XZ=              0.4324   YZ=             -4.2837

 Normal termination of Gaussian 09 at Fri Jun 29 14:27:56 2018.
