 Gaussian 09, Revision C.01,
 Gaussian 09:  EM64L-G09RevC.01 23-Sep-2011

 --------------------------------------
 #SP PBE1PBE/Def2TZVP geom=connectivity
 --------------------------------------

 99/5=1,9=1/99;
 -------------
 Structure: 71
 -------------
 Charge =  0 Multiplicity = 1

                         Standard orientation:
 ---------------------------------------------------------------------
 Center     Atomic      Atomic             Coordinates (Angstroms)
 Number     Number       Type             X           Y           Z
 ---------------------------------------------------------------------
      1          1           0       -3.624114   -0.823434   -0.233711
      2          6           0       -2.749712   -0.440218    0.298470
      3          6           0       -1.499165   -0.471959   -0.579146
      4          1           0       -2.629745   -1.055396    1.195397
      5          1           0       -2.979847    0.577381    0.623648
      6          1           0       -1.286286   -1.496486   -0.903843
      7         14           0        0.033022    0.196629    0.237932
      8          1           0       -1.663818    0.108868   -1.492929
      9          8           0        0.280670    1.796492   -0.074340
     10          8           0        1.272493   -0.730573   -0.311448
     11          1           0       -0.024286    0.141698    1.721004
     12          1           0        0.299716    2.070711   -0.993176
     13          6           0        2.602333   -0.600515    0.131204
     14          1           0        3.200135   -1.384102   -0.340166
     15          1           0        2.676672   -0.714996    1.219040
     16          1           0        3.023223    0.371754   -0.143184
 ---------------------------------------------------------------------

 SCF Done:  E(RPBE1PBE) =  -560.059910416     A.U. after   12 cycles

 The electronic state is 1-A.
 Alpha  occ. eigenvalues --  -66.25391 -19.20260 -19.20004 -10.26420 -10.21491
 Alpha  occ. eigenvalues --  -10.20773  -5.33057  -3.66584  -3.66465  -3.66332
 Alpha  occ. eigenvalues --   -1.04445  -1.02284  -0.78066  -0.70573  -0.63697
 Alpha  occ. eigenvalues --   -0.56883  -0.50966  -0.46864  -0.46298  -0.45793
 Alpha  occ. eigenvalues --   -0.44668  -0.40009  -0.38551  -0.37899  -0.36269
 Alpha  occ. eigenvalues --   -0.35470  -0.31837  -0.30474  -0.29667
 Alpha virt. eigenvalues --    0.03120   0.04539   0.05783   0.07033   0.09961
 Alpha virt. eigenvalues --    0.09966   0.11727   0.11951   0.12665   0.12800
 Alpha virt. eigenvalues --    0.13337   0.14633   0.16297   0.17248   0.18870

 Mulliken atomic charges:
              1
     1  H    0.126212
     2  C   -0.380722
     3  C   -0.307559
     4  H    0.127171
     5  H    0.128026
     6  H    0.127718
     7  Si   0.541209
     8  H    0.102334
     9  O   -0.529225
    10  O   -0.342282
    11  H   -0.070444
    12  H    0.318821
    13  C   -0.206887
    14  H    0.128476
    15  H    0.117584
    16  H    0.119567
 Sum of Mulliken atomic charges =   0.00000

 Dipole moment (field-independent basis, Debye):
    X=              0.1456    Y=             -0.0752    Z=             -1.1041  Tot=              1.1162
 Quadrupole moment (field-independent basis, Debye-Ang):
   XX=            -41.4925   YY=            -46.7170   ZZ=            -44.2901
   XY=             -0.0689   XZ=              0.7159   YZ=             -4.1916

 Normal termination of Gaussian 09 at Fri Jun 29 15:05:43 2018.
