 Gaussian 09, Revision C.01,
 Gaussian 09:  EM64L-G09RevC.01 23-Sep-2011

 --------------------------------------
 #SP PBE1PBE/Def2TZVP geom=connectivity
 --------------------------------------

 99/5=1,9=1/99;
 -------------
 Structure: 73
 -------------
 Charge =  0 Multiplicity = 1

                         Standard orientation:
 ---------------------------------------------------------------------
 Center     Atomic      Atomic             Coordinates (Angstroms)
 Number     Number       Type             X           Y           Z
 ---------------------------------------------------------------------
      1          1           0       -3.626765   -0.818158   -0.233551
      2          6           0       -2.757788   -0.409354    0.288376
      3          6           0       -1.490719   -0.518508   -0.558800
      4          1           0       -2.664136   -0.961241    1.228570
      5          1           0       -2.980100    0.631431    0.536477
      6          1           0       -1.285764   -1.565954   -0.806292
      7         14           0        0.034201    0.186788    0.240825
      8          1           0       -1.629190   -0.001514   -1.514317
      9          8           0        0.252273    1.786732   -0.093793
     10          8           0        1.286101   -0.726183   -0.303320
     11          1           0       -0.013265    0.149743    1.724732
     12          1           0        0.262648    2.049078   -1.016002
     13          6           0        2.616615   -0.568317    0.130476
     14          1           0        3.224642   -1.347540   -0.334344
     15          1           0        2.698463   -0.666517    1.218720
     16          1           0        3.019012    0.408332   -0.158950
 ---------------------------------------------------------------------

 SCF Done:  E(RPBE1PBE) =  -560.060126724     A.U. after   12 cycles

 The electronic state is 1-A.
 Alpha  occ. eigenvalues --  -66.25388 -19.20261 -19.19997 -10.26431 -10.21484
 Alpha  occ. eigenvalues --  -10.20786  -5.33054  -3.66581  -3.66461  -3.66328
 Alpha  occ. eigenvalues --   -1.04427  -1.02278  -0.78066  -0.70581  -0.63696
 Alpha  occ. eigenvalues --   -0.56882  -0.50947  -0.46865  -0.46287  -0.45797
 Alpha  occ. eigenvalues --   -0.44688  -0.39947  -0.38559  -0.37952  -0.36240
 Alpha  occ. eigenvalues --   -0.35505  -0.31854  -0.30468  -0.29657
 Alpha virt. eigenvalues --    0.03104   0.04552   0.05843   0.07031   0.09921
 Alpha virt. eigenvalues --    0.10012   0.11718   0.12045   0.12605   0.12866
 Alpha virt. eigenvalues --    0.13318   0.14653   0.16306   0.17169   0.18833

 Mulliken atomic charges:
              1
     1  H    0.126458
     2  C   -0.379497
     3  C   -0.308275
     4  H    0.127126
     5  H    0.127997
     6  H    0.127191
     7  Si   0.540511
     8  H    0.103204
     9  O   -0.529341
    10  O   -0.342123
    11  H   -0.070684
    12  H    0.318862
    13  C   -0.207269
    14  H    0.128648
    15  H    0.117739
    16  H    0.119452
 Sum of Mulliken atomic charges =   0.00000

 Dipole moment (field-independent basis, Debye):
    X=              0.1454    Y=             -0.0874    Z=             -1.1020  Tot=              1.1150
 Quadrupole moment (field-independent basis, Debye-Ang):
   XX=            -41.4729   YY=            -46.8341   ZZ=            -44.1817
   XY=              0.0304   XZ=              0.7696   YZ=             -4.1529

 Normal termination of Gaussian 09 at Fri Jun 29 15:13:32 2018.
