 Gaussian 09, Revision C.01,
 Gaussian 09:  EM64L-G09RevC.01 23-Sep-2011

 --------------------------------------
 #SP PBE1PBE/Def2TZVP geom=connectivity
 --------------------------------------

 99/5=1,9=1/99;
 -------------
 Structure: 78
 -------------
 Charge =  0 Multiplicity = 1

                         Standard orientation:
 ---------------------------------------------------------------------
 Center     Atomic      Atomic             Coordinates (Angstroms)
 Number     Number       Type             X           Y           Z
 ---------------------------------------------------------------------
      1          1           0       -3.630113   -0.804935   -0.240460
      2          6           0       -2.773195   -0.336016    0.249902
      3          6           0       -1.471034   -0.626597   -0.495098
      4          1           0       -2.746325   -0.718091    1.274895
      5          1           0       -2.968599    0.737898    0.302208
      6          1           0       -1.293231   -1.706474   -0.546606
      7         14           0        0.037979    0.164127    0.253141
      8          1           0       -1.543182   -0.280278   -1.531595
      9          8           0        0.186051    1.760061   -0.136432
     10          8           0        1.316164   -0.716078   -0.285105
     11          1           0        0.017267    0.173807    1.737823
     12          1           0        0.168880    1.991657   -1.065681
     13          6           0        2.646457   -0.491167    0.117339
     14          1           0        3.277456   -1.259916   -0.332683
     15          1           0        2.750764   -0.550848    1.206917
     16          1           0        3.004285    0.490207   -0.209357
 ---------------------------------------------------------------------

 SCF Done:  E(RPBE1PBE) =  -560.060681123     A.U. after   12 cycles

 The electronic state is 1-A.
 Alpha  occ. eigenvalues --  -66.25399 -19.20271 -19.19987 -10.26418 -10.21476
 Alpha  occ. eigenvalues --  -10.20824  -5.33061  -3.66589  -3.66468  -3.66336
 Alpha  occ. eigenvalues --   -1.04430  -1.02300  -0.78076  -0.70584  -0.63702
 Alpha  occ. eigenvalues --   -0.56896  -0.50922  -0.46902  -0.46282  -0.45804
 Alpha  occ. eigenvalues --   -0.44730  -0.39818  -0.38567  -0.38114  -0.36159
 Alpha  occ. eigenvalues --   -0.35595  -0.31878  -0.30458  -0.29640
 Alpha virt. eigenvalues --    0.03057   0.04594   0.05973   0.07063   0.09831
 Alpha virt. eigenvalues --    0.10138   0.11620   0.12312   0.12494   0.12976
 Alpha virt. eigenvalues --    0.13384   0.14680   0.16223   0.17025   0.18725

 Mulliken atomic charges:
              1
     1  H    0.127064
     2  C   -0.375883
     3  C   -0.311913
     4  H    0.126966
     5  H    0.127359
     6  H    0.125722
     7  Si   0.539359
     8  H    0.106498
     9  O   -0.528942
    10  O   -0.341762
    11  H   -0.070324
    12  H    0.318821
    13  C   -0.208432
    14  H    0.128699
    15  H    0.117472
    16  H    0.119297
 Sum of Mulliken atomic charges =   0.00000

 Dipole moment (field-independent basis, Debye):
    X=              0.1238    Y=             -0.1129    Z=             -1.1010  Tot=              1.1137
 Quadrupole moment (field-independent basis, Debye-Ang):
   XX=            -41.4620   YY=            -47.1234   ZZ=            -43.9282
   XY=              0.2627   XZ=              0.8590   YZ=             -4.0334

 Normal termination of Gaussian 09 at Fri Jun 29 15:33:17 2018.
