 Gaussian 09, Revision C.01,
 Gaussian 09:  EM64L-G09RevC.01 23-Sep-2011

 --------------------------------------
 #SP PBE1PBE/Def2TZVP geom=connectivity
 --------------------------------------

 99/5=1,9=1/99;
 -------------
 Structure: 74
 -------------
 Charge =  0 Multiplicity = 1

                         Standard orientation:
 ---------------------------------------------------------------------
 Center     Atomic      Atomic             Coordinates (Angstroms)
 Number     Number       Type             X           Y           Z
 ---------------------------------------------------------------------
      1          1           0       -3.627954   -0.815221   -0.234255
      2          6           0       -2.761611   -0.393915    0.282078
      3          6           0       -1.486684   -0.541035   -0.547381
      4          1           0       -2.681394   -0.912935    1.242024
      5          1           0       -2.979342    0.656379    0.491086
      6          1           0       -1.286360   -1.597853   -0.755729
      7         14           0        0.034728    0.182112    0.242930
      8          1           0       -1.611797   -0.057135   -1.521884
      9          8           0        0.239353    1.781413   -0.103505
     10          8           0        1.292156   -0.724451   -0.299475
     11          1           0       -0.007991    0.154804    1.727661
     12          1           0        0.243516    2.037317   -1.026326
     13          6           0        2.623501   -0.552189    0.128844
     14          1           0        3.236937   -1.329496   -0.331800
     15          1           0        2.708899   -0.643480    1.217964
     16          1           0        3.015986    0.425188   -0.167162
 ---------------------------------------------------------------------

 SCF Done:  E(RPBE1PBE) =  -560.060238102     A.U. after   12 cycles

 The electronic state is 1-A.
 Alpha  occ. eigenvalues --  -66.25393 -19.20253 -19.19992 -10.26430 -10.21482
 Alpha  occ. eigenvalues --  -10.20794  -5.33056  -3.66583  -3.66464  -3.66331
 Alpha  occ. eigenvalues --   -1.04412  -1.02289  -0.78068  -0.70587  -0.63697
 Alpha  occ. eigenvalues --   -0.56896  -0.50931  -0.46873  -0.46270  -0.45802
 Alpha  occ. eigenvalues --   -0.44697  -0.39921  -0.38558  -0.37982  -0.36227
 Alpha  occ. eigenvalues --   -0.35525  -0.31861  -0.30471  -0.29654
 Alpha virt. eigenvalues --    0.03109   0.04559   0.05866   0.07033   0.09901
 Alpha virt. eigenvalues --    0.10037   0.11710   0.12098   0.12581   0.12897
 Alpha virt. eigenvalues --    0.13312   0.14657   0.16305   0.17132   0.18812

 Mulliken atomic charges:
              1
     1  H    0.126582
     2  C   -0.378824
     3  C   -0.308801
     4  H    0.127107
     5  H    0.127923
     6  H    0.126938
     7  Si   0.540158
     8  H    0.103749
     9  O   -0.529130
    10  O   -0.342250
    11  H   -0.070684
    12  H    0.318654
    13  C   -0.207558
    14  H    0.128731
    15  H    0.117708
    16  H    0.119696
 Sum of Mulliken atomic charges =   0.00000

 Dipole moment (field-independent basis, Debye):
    X=              0.1432    Y=             -0.0923    Z=             -1.0998  Tot=              1.1130
 Quadrupole moment (field-independent basis, Debye-Ang):
   XX=            -41.4533   YY=            -46.8946   ZZ=            -44.1324
   XY=              0.0750   XZ=              0.7944   YZ=             -4.1293

 Normal termination of Gaussian 09 at Fri Jun 29 15:17:05 2018.
