 Gaussian 09, Revision C.01,
 Gaussian 09:  EM64L-G09RevC.01 23-Sep-2011

 --------------------------------------
 #SP PBE1PBE/Def2TZVP geom=connectivity
 --------------------------------------

 99/5=1,9=1/99;
 -------------
 Structure: 76
 -------------
 Charge =  0 Multiplicity = 1

                         Standard orientation:
 ---------------------------------------------------------------------
 Center     Atomic      Atomic             Coordinates (Angstroms)
 Number     Number       Type             X           Y           Z
 ---------------------------------------------------------------------
      1          1           0       -3.629367   -0.809874   -0.236492
      2          6           0       -2.767872   -0.364367    0.267492
      3          6           0       -1.478609   -0.584849   -0.522618
      4          1           0       -2.714276   -0.816092    1.262673
      5          1           0       -2.975190    0.700577    0.398342
      6          1           0       -1.288797   -1.656038   -0.652724
      7         14           0        0.036409    0.172715    0.247476
      8          1           0       -1.577280   -0.168614   -1.530825
      9          8           0        0.212057    1.770851   -0.120871
     10          8           0        1.304615   -0.720041   -0.291895
     11          1           0        0.004280    0.164320    1.732498
     12          1           0        0.206213    2.015261   -1.046948
     13          6           0        2.635312   -0.521142    0.124679
     14          1           0        3.257522   -1.294015   -0.331618
     15          1           0        2.730452   -0.596675    1.212941
     16          1           0        3.010358    0.458817   -0.187703
 ---------------------------------------------------------------------

 SCF Done:  E(RPBE1PBE) =  -560.060464322     A.U. after   12 cycles

 The electronic state is 1-A.
 Alpha  occ. eigenvalues --  -66.25392 -19.20256 -19.19991 -10.26423 -10.21477
 Alpha  occ. eigenvalues --  -10.20807  -5.33055  -3.66583  -3.66463  -3.66330
 Alpha  occ. eigenvalues --   -1.04426  -1.02289  -0.78069  -0.70594  -0.63697
 Alpha  occ. eigenvalues --   -0.56895  -0.50932  -0.46893  -0.46277  -0.45803
 Alpha  occ. eigenvalues --   -0.44715  -0.39860  -0.38564  -0.38045  -0.36189
 Alpha  occ. eigenvalues --   -0.35557  -0.31872  -0.30464  -0.29649
 Alpha virt. eigenvalues --    0.03086   0.04577   0.05923   0.07047   0.09867
 Alpha virt. eigenvalues --    0.10087   0.11670   0.12199   0.12532   0.12945
 Alpha virt. eigenvalues --    0.13334   0.14677   0.16284   0.17071   0.18771

 Mulliken atomic charges:
              1
     1  H    0.126819
     2  C   -0.377440
     3  C   -0.310043
     4  H    0.127027
     5  H    0.127735
     6  H    0.126290
     7  Si   0.539628
     8  H    0.104967
     9  O   -0.529248
    10  O   -0.341786
    11  H   -0.070628
    12  H    0.318743
    13  C   -0.207912
    14  H    0.128672
    15  H    0.117773
    16  H    0.119403
 Sum of Mulliken atomic charges =   0.00000

 Dipole moment (field-independent basis, Debye):
    X=              0.1370    Y=             -0.1042    Z=             -1.0998  Tot=              1.1132
 Quadrupole moment (field-independent basis, Debye-Ang):
   XX=            -41.4564   YY=            -47.0077   ZZ=            -44.0251
   XY=              0.1703   XZ=              0.8336   YZ=             -4.0857

 Normal termination of Gaussian 09 at Fri Jun 29 15:25:11 2018.
