 Gaussian 09, Revision C.01,
 Gaussian 09:  EM64L-G09RevC.01 23-Sep-2011

 --------------------------------------
 #SP PBE1PBE/Def2TZVP geom=connectivity
 --------------------------------------

 99/5=1,9=1/99;
 ------------
 Structure: 7
 ------------
 Charge =  0 Multiplicity = 1

                         Standard orientation:
 ---------------------------------------------------------------------
 Center     Atomic      Atomic             Coordinates (Angstroms)
 Number     Number       Type             X           Y           Z
 ---------------------------------------------------------------------
      1          1           0       -3.279744   -1.125167   -0.356928
      2          6           0       -2.198673   -1.076173   -0.203523
      3          6           0       -1.734150    0.353594    0.070470
      4          1           0       -1.731806   -1.487313   -1.103696
      5          1           0       -1.952147   -1.739348    0.629324
      6          1           0       -1.995524    1.007590   -0.768799
      7         14           0        0.092890    0.524725    0.378472
      8          1           0       -2.253766    0.758756    0.945291
      9          8           0        0.747455    1.845444   -0.359839
     10          8           0        0.769274   -0.872196   -0.158629
     11          1           0        0.427101    0.731812    1.811671
     12          1           0        0.603846    1.941730   -1.302278
     13          6           0        2.137297   -1.178028   -0.033114
     14          1           0        2.299823   -2.192145   -0.405695
     15          1           0        2.463221   -1.136166    1.012513
     16          1           0        2.757856   -0.488229   -0.615270
 ---------------------------------------------------------------------

 SCF Done:  E(RPBE1PBE) =  -560.059099769     A.U. after   12 cycles

 The electronic state is 1-A.
 Alpha  occ. eigenvalues --  -66.25399 -19.20240 -19.20046 -10.26469 -10.21013
 Alpha  occ. eigenvalues --  -10.20803  -5.33065  -3.66596  -3.66476  -3.66334
 Alpha  occ. eigenvalues --   -1.04497  -1.02312  -0.77870  -0.70436  -0.63746
 Alpha  occ. eigenvalues --   -0.56717  -0.51227  -0.47059  -0.46805  -0.45488
 Alpha  occ. eigenvalues --   -0.42575  -0.40888  -0.38951  -0.37908  -0.35873
 Alpha  occ. eigenvalues --   -0.35209  -0.31700  -0.30661  -0.29523
 Alpha virt. eigenvalues --    0.03182   0.04252   0.05613   0.08306   0.08661
 Alpha virt. eigenvalues --    0.10632   0.11100   0.11724   0.12233   0.13244
 Alpha virt. eigenvalues --    0.14307   0.14766   0.15450   0.18330   0.19460

 Mulliken atomic charges:
              1
     1  H    0.120144
     2  C   -0.349504
     3  C   -0.341252
     4  H    0.126101
     5  H    0.120038
     6  H    0.108901
     7  Si   0.549376
     8  H    0.124070
     9  O   -0.529749
    10  O   -0.330167
    11  H   -0.066527
    12  H    0.317601
    13  C   -0.213978
    14  H    0.127733
    15  H    0.118133
    16  H    0.119079
 Sum of Mulliken atomic charges =   0.00000

 Dipole moment (field-independent basis, Debye):
    X=             -0.1209    Y=             -0.3305    Z=             -1.0750  Tot=              1.1311
 Quadrupole moment (field-independent basis, Debye-Ang):
   XX=            -42.9129   YY=            -47.7286   ZZ=            -42.7232
   XY=             -3.2505   XZ=             -0.8773   YZ=             -3.2202

 Normal termination of Gaussian 09 at Fri Jun 29 15:41:02 2018.
