 Gaussian 09, Revision C.01,
 Gaussian 09:  EM64L-G09RevC.01 23-Sep-2011

 --------------------------------------
 #SP PBE1PBE/Def2TZVP geom=connectivity
 --------------------------------------

 99/5=1,9=1/99;
 -------------
 Structure: 72
 -------------
 Charge =  0 Multiplicity = 1

                         Standard orientation:
 ---------------------------------------------------------------------
 Center     Atomic      Atomic             Coordinates (Angstroms)
 Number     Number       Type             X           Y           Z
 ---------------------------------------------------------------------
      1          1           0       -3.625373   -0.821019   -0.233489
      2          6           0       -2.753774   -0.424862    0.293790
      3          6           0       -1.494763   -0.495481   -0.569338
      4          1           0       -2.646914   -1.008797    1.212983
      5          1           0       -2.980296    0.605011    0.580599
      6          1           0       -1.285547   -1.532152   -0.855599
      7         14           0        0.033647    0.191715    0.239332
      8          1           0       -1.646369    0.053814   -1.504624
      9          8           0        0.265921    1.791659   -0.084294
     10          8           0        1.279319   -0.728386   -0.307616
     11          1           0       -0.018799    0.145476    1.722664
     12          1           0        0.281268    2.060576   -1.004056
     13          6           0        2.609830   -0.584287    0.131368
     14          1           0        3.213046   -1.364885   -0.337314
     15          1           0        2.687689   -0.691105    1.218873
     16          1           0        3.020547    0.390664   -0.150321
 ---------------------------------------------------------------------

 SCF Done:  E(RPBE1PBE) =  -560.060015956     A.U. after   12 cycles

 The electronic state is 1-A.
 Alpha  occ. eigenvalues --  -66.25386 -19.20254 -19.19998 -10.26422 -10.21484
 Alpha  occ. eigenvalues --  -10.20774  -5.33052  -3.66579  -3.66460  -3.66327
 Alpha  occ. eigenvalues --   -1.04427  -1.02285  -0.78062  -0.70583  -0.63693
 Alpha  occ. eigenvalues --   -0.56895  -0.50953  -0.46863  -0.46290  -0.45791
 Alpha  occ. eigenvalues --   -0.44676  -0.39973  -0.38558  -0.37925  -0.36256
 Alpha  occ. eigenvalues --   -0.35486  -0.31850  -0.30469  -0.29662
 Alpha virt. eigenvalues --    0.03121   0.04546   0.05815   0.07033   0.09941
 Alpha virt. eigenvalues --    0.09993   0.11725   0.12000   0.12635   0.12835
 Alpha virt. eigenvalues --    0.13328   0.14644   0.16303   0.17212   0.18854

 Mulliken atomic charges:
              1
     1  H    0.126320
     2  C   -0.380123
     3  C   -0.307864
     4  H    0.127129
     5  H    0.128004
     6  H    0.127440
     7  Si   0.540989
     8  H    0.102720
     9  O   -0.529275
    10  O   -0.342367
    11  H   -0.070584
    12  H    0.318760
    13  C   -0.207076
    14  H    0.128610
    15  H    0.117781
    16  H    0.119535
 Sum of Mulliken atomic charges =   0.00000

 Dipole moment (field-independent basis, Debye):
    X=              0.1503    Y=             -0.0796    Z=             -1.1002  Tot=              1.1133
 Quadrupole moment (field-independent basis, Debye-Ang):
   XX=            -41.4754   YY=            -46.7700   ZZ=            -44.2355
   XY=             -0.0185   XZ=              0.7460   YZ=             -4.1740

 Normal termination of Gaussian 09 at Fri Jun 29 15:09:38 2018.
