 Gaussian 09, Revision C.01,
 Gaussian 09:  EM64L-G09RevC.01 23-Sep-2011

 --------------------------------------
 #SP PBE1PBE/Def2TZVP geom=connectivity
 --------------------------------------

 99/5=1,9=1/99;
 -------------
 Structure: 79
 -------------
 Charge =  0 Multiplicity = 1

                         Standard orientation:
 ---------------------------------------------------------------------
 Center     Atomic      Atomic             Coordinates (Angstroms)
 Number     Number       Type             X           Y           Z
 ---------------------------------------------------------------------
      1          1           0       -3.630146   -0.802429   -0.242878
      2          6           0       -2.775305   -0.322287    0.240194
      3          6           0       -1.467399   -0.646451   -0.480488
      4          1           0       -2.761648   -0.669044    1.277925
      5          1           0       -2.964139    0.753991    0.253523
      6          1           0       -1.296212   -1.728551   -0.493004
      7         14           0        0.038927    0.160093    0.256189
      8          1           0       -1.526447   -0.335542   -1.528972
      9          8           0        0.173512    1.754104   -0.143139
     10          8           0        1.321244   -0.714014   -0.282132
     11          1           0        0.025771    0.178372    1.741044
     12          1           0        0.150504    1.981064   -1.074667
     13          6           0        2.651248   -0.476923    0.113020
     14          1           0        3.286534   -1.243372   -0.335356
     15          1           0        2.761388   -0.528672    1.202672
     16          1           0        3.000097    0.506126   -0.221119
 ---------------------------------------------------------------------

 SCF Done:  E(RPBE1PBE) =  -560.060779985     A.U. after   12 cycles

 The electronic state is 1-A.
 Alpha  occ. eigenvalues --  -66.25393 -19.20291 -19.19981 -10.26425 -10.21474
 Alpha  occ. eigenvalues --  -10.20830  -5.33055  -3.66584  -3.66463  -3.66330
 Alpha  occ. eigenvalues --   -1.04432  -1.02294  -0.78076  -0.70569  -0.63701
 Alpha  occ. eigenvalues --   -0.56895  -0.50917  -0.46898  -0.46283  -0.45800
 Alpha  occ. eigenvalues --   -0.44733  -0.39795  -0.38563  -0.38148  -0.36145
 Alpha  occ. eigenvalues --   -0.35614  -0.31880  -0.30449  -0.29633
 Alpha virt. eigenvalues --    0.03028   0.04604   0.06004   0.07073   0.09813
 Alpha virt. eigenvalues --    0.10164   0.11590   0.12362   0.12472   0.12981
 Alpha virt. eigenvalues --    0.13419   0.14683   0.16182   0.17011   0.18704

 Mulliken atomic charges:
              1
     1  H    0.127160
     2  C   -0.375015
     3  C   -0.313080
     4  H    0.126941
     5  H    0.127059
     6  H    0.125422
     7  Si   0.539215
     8  H    0.107333
     9  O   -0.528820
    10  O   -0.341564
    11  H   -0.070253
    12  H    0.319165
    13  C   -0.208801
    14  H    0.128706
    15  H    0.117422
    16  H    0.119111
 Sum of Mulliken atomic charges =   0.00000

 Dipole moment (field-independent basis, Debye):
    X=              0.1157    Y=             -0.1123    Z=             -1.1047  Tot=              1.1164
 Quadrupole moment (field-independent basis, Debye-Ang):
   XX=            -41.4752   YY=            -47.1635   ZZ=            -43.8844
   XY=              0.3046   XZ=              0.8696   YZ=             -4.0130

 Normal termination of Gaussian 09 at Fri Jun 29 15:37:11 2018.
