 Gaussian 09, Revision C.01,
 Gaussian 09:  EM64L-G09RevC.01 23-Sep-2011

 --------------------------------------
 #SP PBE1PBE/Def2TZVP geom=connectivity
 --------------------------------------

 99/5=1,9=1/99;
 -------------
 Structure: 70
 -------------
 Charge =  0 Multiplicity = 1

                         Standard orientation:
 ---------------------------------------------------------------------
 Center     Atomic      Atomic             Coordinates (Angstroms)
 Number     Number       Type             X           Y           Z
 ---------------------------------------------------------------------
      1          1           0       -3.622241   -0.826526   -0.234303
      2          6           0       -2.745019   -0.456394    0.302479
      3          6           0       -1.503312   -0.448087   -0.588127
      4          1           0       -2.611817   -1.102278    1.175637
      5          1           0       -2.978583    0.547338    0.666046
      6          1           0       -1.286952   -1.458880   -0.951290
      7         14           0        0.032657    0.201689    0.236988
      8          1           0       -1.681141    0.163755   -1.478911
      9          8           0        0.294407    1.801823   -0.064254
     10          8           0        1.264744   -0.732629   -0.315749
     11          1           0       -0.027266    0.137091    1.719285
     12          1           0        0.318415    2.082057   -0.980888
     13          6           0        2.595187   -0.617614    0.130717
     14          1           0        3.187617   -1.402052   -0.345413
     15          1           0        2.665814   -0.739304    1.217087
     16          1           0        3.024609    0.354168   -0.135473
 ---------------------------------------------------------------------

 SCF Done:  E(RPBE1PBE) =  -560.059808248     A.U. after   12 cycles

 The electronic state is 1-A.
 Alpha  occ. eigenvalues --  -66.25387 -19.20248 -19.20007 -10.26424 -10.21491
 Alpha  occ. eigenvalues --  -10.20763  -5.33054  -3.66581  -3.66462  -3.66329
 Alpha  occ. eigenvalues --   -1.04438  -1.02276  -0.78062  -0.70582  -0.63695
 Alpha  occ. eigenvalues --   -0.56879  -0.50973  -0.46847  -0.46317  -0.45785
 Alpha  occ. eigenvalues --   -0.44651  -0.40028  -0.38555  -0.37871  -0.36276
 Alpha  occ. eigenvalues --   -0.35450  -0.31842  -0.30475  -0.29671
 Alpha virt. eigenvalues --    0.03135   0.04531   0.05760   0.07034   0.09949
 Alpha virt. eigenvalues --    0.09979   0.11722   0.11919   0.12687   0.12769
 Alpha virt. eigenvalues --    0.13358   0.14618   0.16279   0.17289   0.18893

 Mulliken atomic charges:
              1
     1  H    0.126075
     2  C   -0.381329
     3  C   -0.307245
     4  H    0.127171
     5  H    0.128021
     6  H    0.127915
     7  Si   0.541679
     8  H    0.102018
     9  O   -0.529472
    10  O   -0.342263
    11  H   -0.070349
    12  H    0.318713
    13  C   -0.206869
    14  H    0.128578
    15  H    0.117789
    16  H    0.119569
 Sum of Mulliken atomic charges =   0.00000

 Dipole moment (field-independent basis, Debye):
    X=              0.1522    Y=             -0.0728    Z=             -1.1025  Tot=              1.1154
 Quadrupole moment (field-independent basis, Debye-Ang):
   XX=            -41.4851   YY=            -46.6604   ZZ=            -44.3434
   XY=             -0.1255   XZ=              0.6884   YZ=             -4.2064

 Normal termination of Gaussian 09 at Fri Jun 29 15:01:04 2018.
