 Gaussian 09, Revision C.01,
 Gaussian 09:  EM64L-G09RevC.01 23-Sep-2011

 --------------------------------------
 #SP PBE1PBE/Def2TZVP geom=connectivity
 --------------------------------------

 99/5=1,9=1/99;
 -------------
 Structure: 75
 -------------
 Charge =  0 Multiplicity = 1

                         Standard orientation:
 ---------------------------------------------------------------------
 Center     Atomic      Atomic             Coordinates (Angstroms)
 Number     Number       Type             X           Y           Z
 ---------------------------------------------------------------------
      1          1           0       -3.628917   -0.812141   -0.235020
      2          6           0       -2.764980   -0.378622    0.275199
      3          6           0       -1.482737   -0.563116   -0.535295
      4          1           0       -2.698097   -0.864108    1.253536
      5          1           0       -2.977580    0.679767    0.444977
      6          1           0       -1.287595   -1.627887   -0.704365
      7         14           0        0.035516    0.177399    0.244943
      8          1           0       -1.594607   -0.112946   -1.527414
      9          8           0        0.226279    1.775940   -0.112416
     10          8           0        1.298504   -0.722529   -0.295665
     11          1           0       -0.002316    0.159519    1.729490
     12          1           0        0.225586    2.025992   -1.037064
     13          6           0        2.629114   -0.536536    0.127377
     14          1           0        3.247165   -1.311573   -0.331313
     15          1           0        2.718879   -0.620025    1.215970
     16          1           0        3.013618    0.442167   -0.177047
 ---------------------------------------------------------------------

 SCF Done:  E(RPBE1PBE) =  -560.060352273     A.U. after   12 cycles

 The electronic state is 1-A.
 Alpha  occ. eigenvalues --  -66.25390 -19.20260 -19.19990 -10.26424 -10.21480
 Alpha  occ. eigenvalues --  -10.20801  -5.33054  -3.66581  -3.66461  -3.66329
 Alpha  occ. eigenvalues --   -1.04423  -1.02293  -0.78070  -0.70583  -0.63698
 Alpha  occ. eigenvalues --   -0.56898  -0.50932  -0.46882  -0.46273  -0.45804
 Alpha  occ. eigenvalues --   -0.44706  -0.39895  -0.38563  -0.38015  -0.36210
 Alpha  occ. eigenvalues --   -0.35542  -0.31864  -0.30466  -0.29652
 Alpha virt. eigenvalues --    0.03095   0.04568   0.05895   0.07041   0.09886
 Alpha virt. eigenvalues --    0.10060   0.11690   0.12147   0.12558   0.12923
 Alpha virt. eigenvalues --    0.13320   0.14670   0.16300   0.17102   0.18791

 Mulliken atomic charges:
              1
     1  H    0.126709
     2  C   -0.378158
     3  C   -0.309400
     4  H    0.127075
     5  H    0.127841
     6  H    0.126635
     7  Si   0.539886
     8  H    0.104330
     9  O   -0.529075
    10  O   -0.342064
    11  H   -0.070677
    12  H    0.318745
    13  C   -0.207699
    14  H    0.128649
    15  H    0.117740
    16  H    0.119466
 Sum of Mulliken atomic charges =   0.00000

 Dipole moment (field-independent basis, Debye):
    X=              0.1375    Y=             -0.0965    Z=             -1.0997  Tot=              1.1124
 Quadrupole moment (field-independent basis, Debye-Ang):
   XX=            -41.4628   YY=            -46.9517   ZZ=            -44.0758
   XY=              0.1257   XZ=              0.8135   YZ=             -4.1085

 Normal termination of Gaussian 09 at Fri Jun 29 15:21:19 2018.
