 Gaussian 09, Revision C.01,
 Gaussian 09:  EM64L-G09RevC.01 23-Sep-2011

 --------------------------------------
 #SP PBE1PBE/Def2TZVP geom=connectivity
 --------------------------------------

 99/5=1,9=1/99;
 -------------
 Structure: 77
 -------------
 Charge =  0 Multiplicity = 1

                         Standard orientation:
 ---------------------------------------------------------------------
 Center     Atomic      Atomic             Coordinates (Angstroms)
 Number     Number       Type             X           Y           Z
 ---------------------------------------------------------------------
      1          1           0       -3.629780   -0.807692   -0.238083
      2          6           0       -2.770653   -0.350145    0.259110
      3          6           0       -1.474747   -0.606115   -0.509131
      4          1           0       -2.730323   -0.767075    1.269979
      5          1           0       -2.972341    0.719988    0.350468
      6          1           0       -1.290613   -1.682354   -0.599713
      7         14           0        0.037140    0.168570    0.250003
      8          1           0       -1.560247   -0.224830   -1.532254
      9          8           0        0.198560    1.765414   -0.128866
     10          8           0        1.310774   -0.718324   -0.288244
     11          1           0        0.010800    0.169024    1.735014
     12          1           0        0.187834    2.003289   -1.056891
     13          6           0        2.641106   -0.505801    0.121435
     14          1           0        3.268205   -1.276932   -0.331665
     15          1           0        2.740667   -0.573633    1.209917
     16          1           0        3.006930    0.475889   -0.198420
 ---------------------------------------------------------------------

 SCF Done:  E(RPBE1PBE) =  -560.060575003     A.U. after   12 cycles

 The electronic state is 1-A.
 Alpha  occ. eigenvalues --  -66.25397 -19.20275 -19.19986 -10.26425 -10.21477
 Alpha  occ. eigenvalues --  -10.20816  -5.33059  -3.66587  -3.66467  -3.66334
 Alpha  occ. eigenvalues --   -1.04426  -1.02300  -0.78073  -0.70576  -0.63699
 Alpha  occ. eigenvalues --   -0.56898  -0.50925  -0.46895  -0.46271  -0.45804
 Alpha  occ. eigenvalues --   -0.44723  -0.39846  -0.38564  -0.38080  -0.36180
 Alpha  occ. eigenvalues --   -0.35578  -0.31871  -0.30459  -0.29641
 Alpha virt. eigenvalues --    0.03064   0.04585   0.05952   0.07054   0.09849
 Alpha virt. eigenvalues --    0.10112   0.11645   0.12252   0.12510   0.12959
 Alpha virt. eigenvalues --    0.13354   0.14678   0.16257   0.17045   0.18748

 Mulliken atomic charges:
              1
     1  H    0.126946
     2  C   -0.376694
     3  C   -0.310894
     4  H    0.127008
     5  H    0.127567
     6  H    0.126024
     7  Si   0.539481
     8  H    0.105679
     9  O   -0.528918
    10  O   -0.341956
    11  H   -0.070526
    12  H    0.318875
    13  C   -0.208154
    14  H    0.128644
    15  H    0.117693
    16  H    0.119226
 Sum of Mulliken atomic charges =   0.00000

 Dipole moment (field-independent basis, Debye):
    X=              0.1292    Y=             -0.1056    Z=             -1.1014  Tot=              1.1140
 Quadrupole moment (field-independent basis, Debye-Ang):
   XX=            -41.4683   YY=            -47.0631   ZZ=            -43.9766
   XY=              0.2210   XZ=              0.8480   YZ=             -4.0622

 Normal termination of Gaussian 09 at Fri Jun 29 15:29:27 2018.
