 Gaussian 09, Revision C.01,
 Gaussian 09:  EM64L-G09RevC.01 23-Sep-2011

 --------------------------------------
 #SP PBE1PBE/Def2TZVP geom=connectivity
 --------------------------------------

 99/5=1,9=1/99;
 -------------
 Structure: 86
 -------------
 Charge =  0 Multiplicity = 1

                         Standard orientation:
 ---------------------------------------------------------------------
 Center     Atomic      Atomic             Coordinates (Angstroms)
 Number     Number       Type             X           Y           Z
 ---------------------------------------------------------------------
      1          1           0       -3.624393   -0.786539   -0.275438
      2          6           0       -2.781266   -0.238806    0.153251
      3          6           0       -1.445071   -0.766765   -0.367255
      4          1           0       -2.858983   -0.337353    1.240248
      5          1           0       -2.913062    0.817608   -0.093382
      6          1           0       -1.331220   -1.828024   -0.119931
      7         14           0        0.046556    0.133574    0.285940
      8          1           0       -1.413719   -0.703936   -1.460205
      9          8           0        0.091707    1.717514   -0.171937
     10          8           0        1.348932   -0.699259   -0.270596
     11          1           0        0.084534    0.203352    1.769154
     12          1           0        0.025090    1.909910   -1.107723
     13          6           0        2.679878   -0.386604    0.067598
     14          1           0        3.333702   -1.139554   -0.378658
     15          1           0        2.830322   -0.396459    1.153456
     16          1           0        2.969583    0.597970   -0.311973
 ---------------------------------------------------------------------

 SCF Done:  E(RPBE1PBE) =  -560.061229285     A.U. after   12 cycles

 The electronic state is 1-A.
 Alpha  occ. eigenvalues --  -66.25404 -19.20291 -19.19982 -10.26433 -10.21467
 Alpha  occ. eigenvalues --  -10.20851  -5.33062  -3.66592  -3.66469  -3.66336
 Alpha  occ. eigenvalues --   -1.04416  -1.02309  -0.78078  -0.70575  -0.63706
 Alpha  occ. eigenvalues --   -0.56901  -0.50880  -0.46952  -0.46306  -0.45755
 Alpha  occ. eigenvalues --   -0.44745  -0.39623  -0.38630  -0.38327  -0.36003
 Alpha  occ. eigenvalues --   -0.35700  -0.31917  -0.30447  -0.29627
 Alpha virt. eigenvalues --    0.02944   0.04664   0.06144   0.07186   0.09661
 Alpha virt. eigenvalues --    0.10370   0.11317   0.12343   0.12729   0.12964
 Alpha virt. eigenvalues --    0.13751   0.14760   0.15782   0.16911   0.18567

 Mulliken atomic charges:
              1
     1  H    0.127471
     2  C   -0.367261
     3  C   -0.323095
     4  H    0.126340
     5  H    0.123182
     6  H    0.123350
     7  Si   0.540613
     8  H    0.114171
     9  O   -0.528629
    10  O   -0.341293
    11  H   -0.068666
    12  H    0.318988
    13  C   -0.210668
    14  H    0.128758
    15  H    0.117448
    16  H    0.119291
 Sum of Mulliken atomic charges =   0.00000

 Dipole moment (field-independent basis, Debye):
    X=              0.0885    Y=             -0.1417    Z=             -1.1002  Tot=              1.1128
 Quadrupole moment (field-independent basis, Debye-Ang):
   XX=            -41.4586   YY=            -47.4734   ZZ=            -43.6565
   XY=              0.5470   XZ=              0.8977   YZ=             -3.8372

 Normal termination of Gaussian 09 at Fri Jun 29 16:09:55 2018.
