 Gaussian 09, Revision C.01,
 Gaussian 09:  EM64L-G09RevC.01 23-Sep-2011

 --------------------------------------
 #SP PBE1PBE/Def2TZVP geom=connectivity
 --------------------------------------

 99/5=1,9=1/99;
 -------------
 Structure: 80
 -------------
 Charge =  0 Multiplicity = 1

                         Standard orientation:
 ---------------------------------------------------------------------
 Center     Atomic      Atomic             Coordinates (Angstroms)
 Number     Number       Type             X           Y           Z
 ---------------------------------------------------------------------
      1          1           0       -3.630131   -0.799539   -0.246136
      2          6           0       -2.777238   -0.308750    0.229626
      3          6           0       -1.463983   -0.665518   -0.465473
      4          1           0       -2.776919   -0.620182    1.278589
      5          1           0       -2.958938    0.768544    0.204466
      6          1           0       -1.299977   -1.748490   -0.439494
      7         14           0        0.039857    0.155924    0.259733
      8          1           0       -1.509817   -0.389987   -1.524459
      9          8           0        0.161688    1.748379   -0.149488
     10          8           0        1.325662   -0.711956   -0.279320
     11          1           0        0.032747    0.183118    1.744606
     12          1           0        0.132874    1.969454   -1.081727
     13          6           0        2.656352   -0.462543    0.108105
     14          1           0        3.294980   -1.227689   -0.339337
     15          1           0        2.771062   -0.508427    1.197270
     16          1           0        2.996539    0.519740   -0.233121
 ---------------------------------------------------------------------

 SCF Done:  E(RPBE1PBE) =  -560.060870006     A.U. after   12 cycles

 The electronic state is 1-A.
 Alpha  occ. eigenvalues --  -66.25385 -19.20285 -19.19979 -10.26426 -10.21470
 Alpha  occ. eigenvalues --  -10.20832  -5.33048  -3.66577  -3.66456  -3.66323
 Alpha  occ. eigenvalues --   -1.04425  -1.02298  -0.78074  -0.70581  -0.63700
 Alpha  occ. eigenvalues --   -0.56898  -0.50908  -0.46917  -0.46275  -0.45797
 Alpha  occ. eigenvalues --   -0.44733  -0.39769  -0.38562  -0.38179  -0.36127
 Alpha  occ. eigenvalues --   -0.35628  -0.31886  -0.30457  -0.29630
 Alpha virt. eigenvalues --    0.03024   0.04616   0.06027   0.07085   0.09793
 Alpha virt. eigenvalues --    0.10194   0.11558   0.12417   0.12459   0.12982
 Alpha virt. eigenvalues --    0.13462   0.14685   0.16136   0.17005   0.18685

 Mulliken atomic charges:
              1
     1  H    0.127235
     2  C   -0.374106
     3  C   -0.314317
     4  H    0.126883
     5  H    0.126719
     6  H    0.125087
     7  Si   0.539051
     8  H    0.108217
     9  O   -0.528657
    10  O   -0.341464
    11  H   -0.070162
    12  H    0.319058
    13  C   -0.209080
    14  H    0.128683
    15  H    0.117528
    16  H    0.119324
 Sum of Mulliken atomic charges =   0.00000

 Dipole moment (field-independent basis, Debye):
    X=              0.1169    Y=             -0.1170    Z=             -1.1046  Tot=              1.1170
 Quadrupole moment (field-independent basis, Debye-Ang):
   XX=            -41.4589   YY=            -47.2166   ZZ=            -43.8424
   XY=              0.3461   XZ=              0.8775   YZ=             -3.9870

 Normal termination of Gaussian 09 at Fri Jun 29 15:44:48 2018.
