 Gaussian 09, Revision C.01,
 Gaussian 09:  EM64L-G09RevC.01 23-Sep-2011

 --------------------------------------
 #SP PBE1PBE/Def2TZVP geom=connectivity
 --------------------------------------

 99/5=1,9=1/99;
 -------------
 Structure: 81
 -------------
 Charge =  0 Multiplicity = 1

                         Standard orientation:
 ---------------------------------------------------------------------
 Center     Atomic      Atomic             Coordinates (Angstroms)
 Number     Number       Type             X           Y           Z
 ---------------------------------------------------------------------
      1          1           0       -3.629687   -0.797327   -0.249985
      2          6           0       -2.778749   -0.296131    0.218370
      3          6           0       -1.460482   -0.684132   -0.449995
      4          1           0       -2.791711   -0.572186    1.277114
      5          1           0       -2.953116    0.780814    0.155166
      6          1           0       -1.303853   -1.766616   -0.385975
      7         14           0        0.040842    0.151871    0.263694
      8          1           0       -1.493159   -0.444013   -1.518051
      9          8           0        0.149478    1.743536   -0.155056
     10          8           0        1.330394   -0.709704   -0.277454
     11          1           0        0.040603    0.186424    1.748722
     12          1           0        0.114472    1.959090   -1.087576
     13          6           0        2.660736   -0.449372    0.102724
     14          1           0        3.302828   -1.211906   -0.343551
     15          1           0        2.781748   -0.488009    1.191404
     16          1           0        2.992084    0.534699   -0.245493
 ---------------------------------------------------------------------

 SCF Done:  E(RPBE1PBE) =  -560.060950798     A.U. after   12 cycles

 The electronic state is 1-A.
 Alpha  occ. eigenvalues --  -66.25404 -19.20281 -19.19983 -10.26431 -10.21471
 Alpha  occ. eigenvalues --  -10.20842  -5.33063  -3.66592  -3.66471  -3.66338
 Alpha  occ. eigenvalues --   -1.04431  -1.02306  -0.78079  -0.70574  -0.63704
 Alpha  occ. eigenvalues --   -0.56902  -0.50908  -0.46915  -0.46284  -0.45792
 Alpha  occ. eigenvalues --   -0.44742  -0.39739  -0.38570  -0.38215  -0.36102
 Alpha  occ. eigenvalues --   -0.35643  -0.31893  -0.30448  -0.29633
 Alpha virt. eigenvalues --    0.03017   0.04622   0.06046   0.07098   0.09771
 Alpha virt. eigenvalues --    0.10221   0.11519   0.12425   0.12479   0.12981
 Alpha virt. eigenvalues --    0.13507   0.14690   0.16077   0.16988   0.18661

 Mulliken atomic charges:
              1
     1  H    0.127326
     2  C   -0.373162
     3  C   -0.315531
     4  H    0.126822
     5  H    0.126351
     6  H    0.124786
     7  Si   0.539276
     8  H    0.109192
     9  O   -0.528798
    10  O   -0.341365
    11  H   -0.069776
    12  H    0.318923
    13  C   -0.209418
    14  H    0.128725
    15  H    0.117483
    16  H    0.119166
 Sum of Mulliken atomic charges =   0.00000

 Dipole moment (field-independent basis, Debye):
    X=              0.1086    Y=             -0.1249    Z=             -1.1013  Tot=              1.1137
 Quadrupole moment (field-independent basis, Debye-Ang):
   XX=            -41.4654   YY=            -47.2688   ZZ=            -43.8052
   XY=              0.3802   XZ=              0.8897   YZ=             -3.9587

 Normal termination of Gaussian 09 at Fri Jun 29 15:49:25 2018.
