 Gaussian 09, Revision C.01,
 Gaussian 09:  EM64L-G09RevC.01 23-Sep-2011

 --------------------------------------
 #SP PBE1PBE/Def2TZVP geom=connectivity
 --------------------------------------

 99/5=1,9=1/99;
 -------------
 Structure: 88
 -------------
 Charge =  0 Multiplicity = 1

                         Standard orientation:
 ---------------------------------------------------------------------
 Center     Atomic      Atomic             Coordinates (Angstroms)
 Number     Number       Type             X           Y           Z
 ---------------------------------------------------------------------
      1          1           0       -3.620675   -0.782522   -0.288850
      2          6           0       -2.779810   -0.218941    0.123425
      3          6           0       -1.439802   -0.794767   -0.332523
      4          1           0       -2.882482   -0.247612    1.212439
      5          1           0       -2.892029    0.821269   -0.192136
      6          1           0       -1.345602   -1.839553   -0.016372
      7         14           0        0.049193    0.127097    0.296194
      8          1           0       -1.383829   -0.801560   -1.426273
      9          8           0        0.071378    1.707874   -0.173479
     10          8           0        1.353505   -0.694983   -0.269943
     11          1           0        0.104006    0.208470    1.777848
     12          1           0       -0.009345    1.892934   -1.110182
     13          6           0        2.684823   -0.365489    0.050569
     14          1           0        3.342710   -1.113762   -0.398255
     15          1           0        2.848628   -0.364723    1.133792
     16          1           0        2.959575    0.619751   -0.340178
 ---------------------------------------------------------------------

 SCF Done:  E(RPBE1PBE) =  -560.061260584     A.U. after   12 cycles

 The electronic state is 1-A.
 Alpha  occ. eigenvalues --  -66.25390 -19.20294 -19.19991 -10.26440 -10.21467
 Alpha  occ. eigenvalues --  -10.20847  -5.33051  -3.66582  -3.66458  -3.66325
 Alpha  occ. eigenvalues --   -1.04424  -1.02304  -0.78076  -0.70583  -0.63706
 Alpha  occ. eigenvalues --   -0.56894  -0.50883  -0.46963  -0.46325  -0.45736
 Alpha  occ. eigenvalues --   -0.44746  -0.39576  -0.38694  -0.38331  -0.35959
 Alpha  occ. eigenvalues --   -0.35712  -0.31934  -0.30447  -0.29631
 Alpha virt. eigenvalues --    0.02906   0.04681   0.06179   0.07224   0.09616
 Alpha virt. eigenvalues --    0.10430   0.11234   0.12315   0.12806   0.12952
 Alpha virt. eigenvalues --    0.13822   0.14852   0.15677   0.16856   0.18548

 Mulliken atomic charges:
              1
     1  H    0.127401
     2  C   -0.364403
     3  C   -0.326299
     4  H    0.126088
     5  H    0.121264
     6  H    0.122850
     7  Si   0.541266
     8  H    0.116174
     9  O   -0.528624
    10  O   -0.340789
    11  H   -0.068385
    12  H    0.319074
    13  C   -0.211226
    14  H    0.128759
    15  H    0.117591
    16  H    0.119261
 Sum of Mulliken atomic charges =   0.00000

 Dipole moment (field-independent basis, Debye):
    X=              0.0807    Y=             -0.1491    Z=             -1.0990  Tot=              1.1120
 Quadrupole moment (field-independent basis, Debye-Ang):
   XX=            -41.4518   YY=            -47.5388   ZZ=            -43.6187
   XY=              0.5898   XZ=              0.8901   YZ=             -3.7925

 Normal termination of Gaussian 09 at Fri Jun 29 16:18:28 2018.
