 Gaussian 09, Revision C.01,
 Gaussian 09:  EM64L-G09RevC.01 23-Sep-2011

 --------------------------------------
 #SP PBE1PBE/Def2TZVP geom=connectivity
 --------------------------------------

 99/5=1,9=1/99;
 ------------
 Structure: 8
 ------------
 Charge =  0 Multiplicity = 1

                         Standard orientation:
 ---------------------------------------------------------------------
 Center     Atomic      Atomic             Coordinates (Angstroms)
 Number     Number       Type             X           Y           Z
 ---------------------------------------------------------------------
      1          1           0       -3.286822   -1.115558   -0.354338
      2          6           0       -2.207096   -1.072432   -0.190082
      3          6           0       -1.732253    0.359659    0.052250
      4          1           0       -1.734206   -1.510907   -1.074067
      5          1           0       -1.975984   -1.716085    0.662273
      6          1           0       -1.978226    0.994105   -0.806456
      7         14           0        0.092804    0.522098    0.376298
      8          1           0       -2.257662    0.791981    0.910452
      9          8           0        0.757074    1.847189   -0.345597
     10          8           0        0.768722   -0.872169   -0.167327
     11          1           0        0.416108    0.716230    1.813363
     12          1           0        0.621971    1.952111   -1.288353
     13          6           0        2.135457   -1.184256   -0.033065
     14          1           0        2.297365   -2.194794   -0.412817
     15          1           0        2.452546   -1.152529    1.015044
     16          1           0        2.762631   -0.491913   -0.604498
 ---------------------------------------------------------------------

 SCF Done:  E(RPBE1PBE) =  -560.059223240     A.U. after   12 cycles

 The electronic state is 1-A.
 Alpha  occ. eigenvalues --  -66.25389 -19.20235 -19.20045 -10.26463 -10.21014
 Alpha  occ. eigenvalues --  -10.20803  -5.33056  -3.66587  -3.66467  -3.66325
 Alpha  occ. eigenvalues --   -1.04475  -1.02299  -0.77868  -0.70460  -0.63743
 Alpha  occ. eigenvalues --   -0.56716  -0.51217  -0.47059  -0.46804  -0.45486
 Alpha  occ. eigenvalues --   -0.42583  -0.40885  -0.38937  -0.37917  -0.35843
 Alpha  occ. eigenvalues --   -0.35243  -0.31713  -0.30671  -0.29515
 Alpha virt. eigenvalues --    0.03198   0.04266   0.05604   0.08313   0.08668
 Alpha virt. eigenvalues --    0.10646   0.11115   0.11734   0.12204   0.13252
 Alpha virt. eigenvalues --    0.14357   0.14786   0.15485   0.18306   0.19443

 Mulliken atomic charges:
              1
     1  H    0.120153
     2  C   -0.351418
     3  C   -0.338795
     4  H    0.127133
     5  H    0.119931
     6  H    0.108228
     7  Si   0.548845
     8  H    0.123883
     9  O   -0.530153
    10  O   -0.330885
    11  H   -0.066587
    12  H    0.317636
    13  C   -0.213307
    14  H    0.127886
    15  H    0.118296
    16  H    0.119153
 Sum of Mulliken atomic charges =   0.00000

 Dipole moment (field-independent basis, Debye):
    X=             -0.1062    Y=             -0.3246    Z=             -1.0792  Tot=              1.1320
 Quadrupole moment (field-independent basis, Debye-Ang):
   XX=            -42.8955   YY=            -47.6522   ZZ=            -42.7702
   XY=             -3.2417   XZ=             -0.9059   YZ=             -3.2631

 Normal termination of Gaussian 09 at Fri Jun 29 16:26:46 2018.
