 Gaussian 09, Revision C.01,
 Gaussian 09:  EM64L-G09RevC.01 23-Sep-2011

 --------------------------------------
 #SP PBE1PBE/Def2TZVP geom=connectivity
 --------------------------------------

 99/5=1,9=1/99;
 -------------
 Structure: 84
 -------------
 Charge =  0 Multiplicity = 1

                         Standard orientation:
 ---------------------------------------------------------------------
 Center     Atomic      Atomic             Coordinates (Angstroms)
 Number     Number       Type             X           Y           Z
 ---------------------------------------------------------------------
      1          1           0       -3.627129   -0.790565   -0.263821
      2          6           0       -2.781195   -0.260397    0.181113
      3          6           0       -1.450816   -0.735690   -0.401359
      4          1           0       -2.833262   -0.429946    1.260861
      5          1           0       -2.931147    0.807874    0.006409
      6          1           0       -1.318730   -1.809080   -0.225892
      7         14           0        0.044234    0.140517    0.276368
      8          1           0       -1.444805   -0.602018   -1.488357
      9          8           0        0.113887    1.727242   -0.167193
     10          8           0        1.342086   -0.702833   -0.272440
     11          1           0        0.065876    0.196717    1.760095
     12          1           0        0.060573    1.929086   -1.102259
     13          6           0        2.673444   -0.410578    0.083333
     14          1           0        3.322770   -1.167128   -0.362725
     15          1           0        2.811057   -0.431161    1.170298
     16          1           0        2.979145    0.573696   -0.285222
 ---------------------------------------------------------------------

 SCF Done:  E(RPBE1PBE) =  -560.061147177     A.U. after   12 cycles

 The electronic state is 1-A.
 Alpha  occ. eigenvalues --  -66.25385 -19.20285 -19.19976 -10.26436 -10.21461
 Alpha  occ. eigenvalues --  -10.20839  -5.33046  -3.66576  -3.66453  -3.66321
 Alpha  occ. eigenvalues --   -1.04414  -1.02297  -0.78071  -0.70586  -0.63698
 Alpha  occ. eigenvalues --   -0.56900  -0.50884  -0.46941  -0.46296  -0.45770
 Alpha  occ. eigenvalues --   -0.44739  -0.39659  -0.38596  -0.38291  -0.36043
 Alpha  occ. eigenvalues --   -0.35676  -0.31912  -0.30445  -0.29625
 Alpha virt. eigenvalues --    0.02975   0.04653   0.06113   0.07148   0.09708
 Alpha virt. eigenvalues --    0.10315   0.11404   0.12374   0.12637   0.12976
 Alpha virt. eigenvalues --    0.13661   0.14717   0.15904   0.16958   0.18606

 Mulliken atomic charges:
              1
     1  H    0.127433
     2  C   -0.369863
     3  C   -0.319937
     4  H    0.126534
     5  H    0.124695
     6  H    0.123831
     7  Si   0.539820
     8  H    0.112060
     9  O   -0.528766
    10  O   -0.341173
    11  H   -0.069239
    12  H    0.319088
    13  C   -0.210156
    14  H    0.128808
    15  H    0.117595
    16  H    0.119271
 Sum of Mulliken atomic charges =   0.00000

 Dipole moment (field-independent basis, Debye):
    X=              0.1048    Y=             -0.1338    Z=             -1.1012  Tot=              1.1143
 Quadrupole moment (field-independent basis, Debye-Ang):
   XX=            -41.4505   YY=            -47.3903   ZZ=            -43.7034
   XY=              0.4827   XZ=              0.8993   YZ=             -3.8879

 Normal termination of Gaussian 09 at Fri Jun 29 16:01:21 2018.
