 Gaussian 09, Revision C.01,
 Gaussian 09:  EM64L-G09RevC.01 23-Sep-2011

 --------------------------------------
 #SP PBE1PBE/Def2TZVP geom=connectivity
 --------------------------------------

 99/5=1,9=1/99;
 -------------
 Structure: 87
 -------------
 Charge =  0 Multiplicity = 1

                         Standard orientation:
 ---------------------------------------------------------------------
 Center     Atomic      Atomic             Coordinates (Angstroms)
 Number     Number       Type             X           Y           Z
 ---------------------------------------------------------------------
      1          1           0       -3.622702   -0.784522   -0.281760
      2          6           0       -2.780753   -0.228591    0.138610
      3          6           0       -1.442425   -0.781131   -0.349920
      4          1           0       -2.870975   -0.291900    1.227264
      5          1           0       -2.902959    0.820203   -0.143004
      6          1           0       -1.338202   -1.834634   -0.067660
      7         14           0        0.047819    0.130388    0.290807
      8          1           0       -1.398733   -0.753425   -1.443900
      9          8           0        0.081288    1.712172   -0.172844
     10          8           0        1.351760   -0.696777   -0.270080
     11          1           0        0.094072    0.205668    1.773067
     12          1           0        0.008111    1.900769   -1.110323
     13          6           0        2.682368   -0.375788    0.059493
     14          1           0        3.338193   -1.126840   -0.388194
     15          1           0        2.839630   -0.380137    1.143915
     16          1           0        2.964578    0.609277   -0.326415
 ---------------------------------------------------------------------

 SCF Done:  E(RPBE1PBE) =  -560.061250971     A.U. after   12 cycles

 The electronic state is 1-A.
 Alpha  occ. eigenvalues --  -66.25390 -19.20309 -19.19981 -10.26434 -10.21467
 Alpha  occ. eigenvalues --  -10.20848  -5.33051  -3.66582  -3.66459  -3.66325
 Alpha  occ. eigenvalues --   -1.04426  -1.02304  -0.78077  -0.70568  -0.63705
 Alpha  occ. eigenvalues --   -0.56892  -0.50883  -0.46959  -0.46314  -0.45746
 Alpha  occ. eigenvalues --   -0.44746  -0.39606  -0.38660  -0.38332  -0.35986
 Alpha  occ. eigenvalues --   -0.35708  -0.31918  -0.30440  -0.29626
 Alpha virt. eigenvalues --    0.02911   0.04675   0.06165   0.07205   0.09641
 Alpha virt. eigenvalues --    0.10400   0.11276   0.12330   0.12767   0.12958
 Alpha virt. eigenvalues --    0.13784   0.14806   0.15730   0.16886   0.18554

 Mulliken atomic charges:
              1
     1  H    0.127449
     2  C   -0.365860
     3  C   -0.324749
     4  H    0.126224
     5  H    0.122257
     6  H    0.123085
     7  Si   0.540799
     8  H    0.115149
     9  O   -0.528456
    10  O   -0.341058
    11  H   -0.068569
    12  H    0.319308
    13  C   -0.210841
    14  H    0.128667
    15  H    0.117476
    16  H    0.119118
 Sum of Mulliken atomic charges =   0.00000

 Dipole moment (field-independent basis, Debye):
    X=              0.0816    Y=             -0.1427    Z=             -1.1019  Tot=              1.1141
 Quadrupole moment (field-independent basis, Debye-Ang):
   XX=            -41.4721   YY=            -47.5017   ZZ=            -43.6331
   XY=              0.5712   XZ=              0.8943   YZ=             -3.8175

 Normal termination of Gaussian 09 at Fri Jun 29 16:14:29 2018.
