 Gaussian 09, Revision C.01,
 Gaussian 09:  EM64L-G09RevC.01 23-Sep-2011

 --------------------------------------
 #SP PBE1PBE/Def2TZVP geom=connectivity
 --------------------------------------

 99/5=1,9=1/99;
 -------------
 Structure: 85
 -------------
 Charge =  0 Multiplicity = 1

                         Standard orientation:
 ---------------------------------------------------------------------
 Center     Atomic      Atomic             Coordinates (Angstroms)
 Number     Number       Type             X           Y           Z
 ---------------------------------------------------------------------
      1          1           0       -3.625677   -0.788578   -0.269263
      2          6           0       -2.781212   -0.249362    0.167513
      3          6           0       -1.447687   -0.751559   -0.384390
      4          1           0       -2.846118   -0.383254    1.251567
      5          1           0       -2.922322    0.813536   -0.043546
      6          1           0       -1.324483   -1.819439   -0.172599
      7         14           0        0.045555    0.137125    0.280963
      8          1           0       -1.428988   -0.653480   -1.475032
      9          8           0        0.102684    1.722249   -0.169817
     10          8           0        1.345231   -0.701096   -0.271130
     11          1           0        0.075579    0.200552    1.763684
     12          1           0        0.043199    1.919089   -1.106100
     13          6           0        2.676145   -0.398658    0.075495
     14          1           0        3.328563   -1.152740   -0.370065
     15          1           0        2.821103   -0.413326    1.162149
     16          1           0        2.974583    0.586152   -0.298414
 ---------------------------------------------------------------------

 SCF Done:  E(RPBE1PBE) =  -560.061195642     A.U. after   12 cycles

 The electronic state is 1-A.
 Alpha  occ. eigenvalues --  -66.25381 -19.20296 -19.19986 -10.26439 -10.21462
 Alpha  occ. eigenvalues --  -10.20841  -5.33044  -3.66574  -3.66451  -3.66318
 Alpha  occ. eigenvalues --   -1.04430  -1.02302  -0.78072  -0.70584  -0.63700
 Alpha  occ. eigenvalues --   -0.56896  -0.50893  -0.46944  -0.46309  -0.45760
 Alpha  occ. eigenvalues --   -0.44742  -0.39643  -0.38611  -0.38310  -0.36023
 Alpha  occ. eigenvalues --   -0.35688  -0.31920  -0.30448  -0.29626
 Alpha virt. eigenvalues --    0.02952   0.04662   0.06133   0.07163   0.09686
 Alpha virt. eigenvalues --    0.10344   0.11364   0.12363   0.12689   0.12976
 Alpha virt. eigenvalues --    0.13706   0.14734   0.15848   0.16935   0.18591

 Mulliken atomic charges:
              1
     1  H    0.127447
     2  C   -0.368604
     3  C   -0.321555
     4  H    0.126432
     5  H    0.123980
     6  H    0.123568
     7  Si   0.540097
     8  H    0.113078
     9  O   -0.528667
    10  O   -0.340807
    11  H   -0.069002
    12  H    0.319181
    13  C   -0.210642
    14  H    0.128805
    15  H    0.117483
    16  H    0.119205
 Sum of Mulliken atomic charges =   0.00000

 Dipole moment (field-independent basis, Debye):
    X=              0.0984    Y=             -0.1376    Z=             -1.1024  Tot=              1.1153
 Quadrupole moment (field-independent basis, Debye-Ang):
   XX=            -41.4581   YY=            -47.4335   ZZ=            -43.6758
   XY=              0.5153   XZ=              0.8965   YZ=             -3.8633

 Normal termination of Gaussian 09 at Fri Jun 29 16:05:26 2018.
