 Gaussian 09, Revision C.01,
 Gaussian 09:  EM64L-G09RevC.01 23-Sep-2011

 --------------------------------------
 #SP PBE1PBE/Def2TZVP geom=connectivity
 --------------------------------------

 99/5=1,9=1/99;
 -------------
 Structure: 89
 -------------
 Charge =  0 Multiplicity = 1

                         Standard orientation:
 ---------------------------------------------------------------------
 Center     Atomic      Atomic             Coordinates (Angstroms)
 Number     Number       Type             X           Y           Z
 ---------------------------------------------------------------------
      1          1           0       -3.618264   -0.781217   -0.296435
      2          6           0       -2.778506   -0.210010    0.107516
      3          6           0       -1.437160   -0.807964   -0.314773
      4          1           0       -2.893587   -0.203761    1.195648
      5          1           0       -2.880536    0.820407   -0.241828
      6          1           0       -1.353184   -1.842826    0.035099
      7         14           0        0.050528    0.124255    0.301652
      8          1           0       -1.368948   -0.849525   -1.407059
      9          8           0        0.060156    1.703046   -0.173165
     10          8           0        1.356371   -0.693114   -0.269607
     11          1           0        0.113910    0.210125    1.782864
     12          1           0       -0.025880    1.884021   -1.110650
     13          6           0        2.687234   -0.354885    0.040826
     14          1           0        3.345855   -1.100711   -0.409009
     15          1           0        2.857932   -0.349635    1.123428
     16          1           0        2.953688    0.631245   -0.354420
 ---------------------------------------------------------------------

 SCF Done:  E(RPBE1PBE) =  -560.061254544     A.U. after   12 cycles

 The electronic state is 1-A.
 Alpha  occ. eigenvalues --  -66.25394 -19.20312 -19.19991 -10.26431 -10.21469
 Alpha  occ. eigenvalues --  -10.20844  -5.33055  -3.66586  -3.66463  -3.66329
 Alpha  occ. eigenvalues --   -1.04434  -1.02318  -0.78076  -0.70576  -0.63707
 Alpha  occ. eigenvalues --   -0.56896  -0.50887  -0.46965  -0.46346  -0.45724
 Alpha  occ. eigenvalues --   -0.44748  -0.39571  -0.38727  -0.38326  -0.35950
 Alpha  occ. eigenvalues --   -0.35720  -0.31936  -0.30444  -0.29624
 Alpha virt. eigenvalues --    0.02878   0.04687   0.06194   0.07248   0.09593
 Alpha virt. eigenvalues --    0.10460   0.11190   0.12305   0.12843   0.12945
 Alpha virt. eigenvalues --    0.13844   0.14915   0.15618   0.16818   0.18537

 Mulliken atomic charges:
              1
     1  H    0.127347
     2  C   -0.362895
     3  C   -0.327894
     4  H    0.125963
     5  H    0.120191
     6  H    0.122644
     7  Si   0.541771
     8  H    0.117133
     9  O   -0.528299
    10  O   -0.340981
    11  H   -0.068204
    12  H    0.319217
    13  C   -0.211247
    14  H    0.128767
    15  H    0.117414
    16  H    0.119074
 Sum of Mulliken atomic charges =   0.00000

 Dipole moment (field-independent basis, Debye):
    X=              0.0746    Y=             -0.1489    Z=             -1.1011  Tot=              1.1136
 Quadrupole moment (field-independent basis, Debye-Ang):
   XX=            -41.4677   YY=            -47.5661   ZZ=            -43.6056
   XY=              0.6179   XZ=              0.8765   YZ=             -3.7698

 Normal termination of Gaussian 09 at Fri Jun 29 16:22:18 2018.
