 Gaussian 09, Revision C.01,
 Gaussian 09:  EM64L-G09RevC.01 23-Sep-2011

 --------------------------------------
 #SP PBE1PBE/Def2TZVP geom=connectivity
 --------------------------------------

 99/5=1,9=1/99;
 -------------
 Structure: 82
 -------------
 Charge =  0 Multiplicity = 1

                         Standard orientation:
 ---------------------------------------------------------------------
 Center     Atomic      Atomic             Coordinates (Angstroms)
 Number     Number       Type             X           Y           Z
 ---------------------------------------------------------------------
      1          1           0       -3.628878   -0.795330   -0.253868
      2          6           0       -2.779757   -0.283911    0.206669
      3          6           0       -1.456978   -0.702147   -0.433970
      4          1           0       -2.805785   -0.524219    1.273857
      5          1           0       -2.946476    0.791353    0.105565
      6          1           0       -1.308041   -1.782811   -0.332057
      7         14           0        0.042027    0.148142    0.267611
      8          1           0       -1.476719   -0.497788   -1.509756
      9          8           0        0.136545    1.737680   -0.160010
     10          8           0        1.334870   -0.707727   -0.275660
     11          1           0        0.048945    0.190949    1.752345
     12          1           0        0.096110    1.948550   -1.093324
     13          6           0        2.665265   -0.435397    0.097022
     14          1           0        3.309934   -1.196333   -0.348640
     15          1           0        2.792390   -0.467983    1.185156
     16          1           0        2.987653    0.548725   -0.258805
 ---------------------------------------------------------------------

 SCF Done:  E(RPBE1PBE) =  -560.061024901     A.U. after   12 cycles

 The electronic state is 1-A.
 Alpha  occ. eigenvalues --  -66.25396 -19.20287 -19.19981 -10.26432 -10.21466
 Alpha  occ. eigenvalues --  -10.20839  -5.33057  -3.66586  -3.66465  -3.66332
 Alpha  occ. eigenvalues --   -1.04424  -1.02316  -0.78075  -0.70571  -0.63701
 Alpha  occ. eigenvalues --   -0.56915  -0.50900  -0.46923  -0.46278  -0.45783
 Alpha  occ. eigenvalues --   -0.44740  -0.39718  -0.38573  -0.38244  -0.36090
 Alpha  occ. eigenvalues --   -0.35656  -0.31897  -0.30447  -0.29630
 Alpha virt. eigenvalues --    0.03004   0.04633   0.06072   0.07113   0.09749
 Alpha virt. eigenvalues --    0.10254   0.11480   0.12408   0.12529   0.12981
 Alpha virt. eigenvalues --    0.13559   0.14696   0.16023   0.16979   0.18643

 Mulliken atomic charges:
              1
     1  H    0.127371
     2  C   -0.372120
     3  C   -0.316969
     4  H    0.126729
     5  H    0.125866
     6  H    0.124444
     7  Si   0.539472
     8  H    0.110104
     9  O   -0.528483
    10  O   -0.341522
    11  H   -0.069593
    12  H    0.318977
    13  C   -0.209717
    14  H    0.128738
    15  H    0.117532
    16  H    0.119173
 Sum of Mulliken atomic charges =   0.00000

 Dipole moment (field-independent basis, Debye):
    X=              0.1079    Y=             -0.1242    Z=             -1.1009  Tot=              1.1132
 Quadrupole moment (field-independent basis, Debye-Ang):
   XX=            -41.4670   YY=            -47.3075   ZZ=            -43.7684
   XY=              0.4219   XZ=              0.8973   YZ=             -3.9373

 Normal termination of Gaussian 09 at Fri Jun 29 15:53:53 2018.
