 Gaussian 09, Revision C.01,
 Gaussian 09:  EM64L-G09RevC.01 23-Sep-2011

 --------------------------------------
 #SP PBE1PBE/Def2TZVP geom=connectivity
 --------------------------------------

 99/5=1,9=1/99;
 -------------
 Structure: 83
 -------------
 Charge =  0 Multiplicity = 1

                         Standard orientation:
 ---------------------------------------------------------------------
 Center     Atomic      Atomic             Coordinates (Angstroms)
 Number     Number       Type             X           Y           Z
 ---------------------------------------------------------------------
      1          1           0       -3.628091   -0.792698   -0.258585
      2          6           0       -2.780578   -0.271790    0.194212
      3          6           0       -1.453806   -0.719223   -0.417805
      4          1           0       -2.819691   -0.476705    1.268360
      5          1           0       -2.939013    0.800600    0.056055
      6          1           0       -1.313196   -1.796871   -0.278858
      7         14           0        0.043211    0.144182    0.271903
      8          1           0       -1.460605   -0.550230   -1.499870
      9          8           0        0.125187    1.732514   -0.163900
     10          8           0        1.338011   -0.705319   -0.273949
     11          1           0        0.058080    0.193868    1.755937
     12          1           0        0.078855    1.938429   -1.098577
     13          6           0        2.669450   -0.422731    0.090363
     14          1           0        3.317134   -1.181317   -0.355442
     15          1           0        2.801591   -0.450000    1.177900
     16          1           0        2.984001    0.561277   -0.271397
 ---------------------------------------------------------------------

 SCF Done:  E(RPBE1PBE) =  -560.061090610     A.U. after   12 cycles

 The electronic state is 1-A.
 Alpha  occ. eigenvalues --  -66.25382 -19.20284 -19.19984 -10.26444 -10.21461
 Alpha  occ. eigenvalues --  -10.20836  -5.33044  -3.66574  -3.66452  -3.66319
 Alpha  occ. eigenvalues --   -1.04413  -1.02294  -0.78070  -0.70589  -0.63697
 Alpha  occ. eigenvalues --   -0.56895  -0.50889  -0.46934  -0.46282  -0.45775
 Alpha  occ. eigenvalues --   -0.44736  -0.39685  -0.38582  -0.38267  -0.36062
 Alpha  occ. eigenvalues --   -0.35664  -0.31911  -0.30454  -0.29628
 Alpha virt. eigenvalues --    0.02990   0.04645   0.06094   0.07126   0.09726
 Alpha virt. eigenvalues --    0.10286   0.11444   0.12390   0.12589   0.12978
 Alpha virt. eigenvalues --    0.13612   0.14698   0.15966   0.16973   0.18629

 Mulliken atomic charges:
              1
     1  H    0.127392
     2  C   -0.371045
     3  C   -0.318397
     4  H    0.126623
     5  H    0.125336
     6  H    0.124113
     7  Si   0.539497
     8  H    0.111054
     9  O   -0.528777
    10  O   -0.341117
    11  H   -0.069473
    12  H    0.319068
    13  C   -0.210157
    14  H    0.128823
    15  H    0.117691
    16  H    0.119369
 Sum of Mulliken atomic charges =   0.00000

 Dipole moment (field-independent basis, Debye):
    X=              0.1120    Y=             -0.1308    Z=             -1.1010  Tot=              1.1144
 Quadrupole moment (field-independent basis, Debye-Ang):
   XX=            -41.4440   YY=            -47.3557   ZZ=            -43.7333
   XY=              0.4538   XZ=              0.8977   YZ=             -3.9134

 Normal termination of Gaussian 09 at Fri Jun 29 15:57:30 2018.
