 Gaussian 09, Revision C.01,
 Gaussian 09:  EM64L-G09RevC.01 23-Sep-2011

 --------------------------------------
 #SP PBE1PBE/Def2TZVP geom=connectivity
 --------------------------------------

 99/5=1,9=1/99;
 ------------
 Structure: 9
 ------------
 Charge =  0 Multiplicity = 1

                         Standard orientation:
 ---------------------------------------------------------------------
 Center     Atomic      Atomic             Coordinates (Angstroms)
 Number     Number       Type             X           Y           Z
 ---------------------------------------------------------------------
      1          1           0       -3.294399   -1.104648   -0.351796
      2          6           0       -2.216161   -1.067471   -0.176666
      3          6           0       -1.730101    0.365868    0.033980
      4          1           0       -1.737935   -1.533103   -1.043731
      5          1           0       -2.000628   -1.691013    0.694512
      6          1           0       -1.960515    0.980183   -0.843475
      7         14           0        0.092802    0.519417    0.374083
      8          1           0       -2.260621    0.825178    0.874845
      9          8           0        0.767771    1.848098   -0.331446
     10          8           0        0.768361   -0.873082   -0.175565
     11          1           0        0.404895    0.700969    1.815440
     12          1           0        0.639334    1.961524   -1.274823
     13          6           0        2.132814   -1.190017   -0.033544
     14          1           0        2.294188   -2.198277   -0.419865
     15          1           0        2.441722   -1.168318    1.018241
     16          1           0        2.766371   -0.494742   -0.593049
 ---------------------------------------------------------------------

 SCF Done:  E(RPBE1PBE) =  -560.059354390     A.U. after   12 cycles

 The electronic state is 1-A.
 Alpha  occ. eigenvalues --  -66.25398 -19.20251 -19.20043 -10.26460 -10.21022
 Alpha  occ. eigenvalues --  -10.20814  -5.33062  -3.66593  -3.66473  -3.66332
 Alpha  occ. eigenvalues --   -1.04476  -1.02293  -0.77875  -0.70450  -0.63747
 Alpha  occ. eigenvalues --   -0.56712  -0.51213  -0.47054  -0.46809  -0.45486
 Alpha  occ. eigenvalues --   -0.42600  -0.40895  -0.38920  -0.37927  -0.35819
 Alpha  occ. eigenvalues --   -0.35280  -0.31717  -0.30677  -0.29509
 Alpha virt. eigenvalues --    0.03195   0.04278   0.05591   0.08324   0.08667
 Alpha virt. eigenvalues --    0.10653   0.11130   0.11733   0.12183   0.13256
 Alpha virt. eigenvalues --    0.14403   0.14801   0.15514   0.18268   0.19417

 Mulliken atomic charges:
              1
     1  H    0.120218
     2  C   -0.353335
     3  C   -0.336413
     4  H    0.128144
     5  H    0.119923
     6  H    0.107625
     7  Si   0.548270
     8  H    0.123759
     9  O   -0.530452
    10  O   -0.331586
    11  H   -0.066480
    12  H    0.317836
    13  C   -0.212670
    14  H    0.127855
    15  H    0.118101
    16  H    0.119205
 Sum of Mulliken atomic charges =   0.00000

 Dipole moment (field-independent basis, Debye):
    X=             -0.1045    Y=             -0.3112    Z=             -1.0854  Tot=              1.1339
 Quadrupole moment (field-independent basis, Debye-Ang):
   XX=            -42.9040   YY=            -47.5787   ZZ=            -42.8245
   XY=             -3.2201   XZ=             -0.9329   YZ=             -3.3028

 Normal termination of Gaussian 09 at Fri Jun 29 16:30:37 2018.
