 Gaussian 09, Revision C.01,
 Gaussian 09:  EM64L-G09RevC.01 23-Sep-2011

 --------------------------------------
 #SP PBE1PBE/Def2TZVP geom=connectivity
 --------------------------------------

 99/5=1,9=1/99;
 ------------
 Structure: 0
 ------------
 Charge =  0 Multiplicity = 1

                         Standard orientation:
 ---------------------------------------------------------------------
 Center     Atomic      Atomic             Coordinates (Angstroms)
 Number     Number       Type             X           Y           Z
 ---------------------------------------------------------------------
      1          1           0        3.224550   -1.249903    0.270343
      2          6           0        2.231560   -0.863577    0.514008
      3          6           0        1.617613   -0.108522   -0.664145
      4          1           0        2.348484   -0.218951    1.390421
      5          1           0        1.609241   -1.712296    0.808296
      6          1           0        2.256357    0.733566   -0.952754
      7         14           0       -0.091620    0.555268   -0.347712
      8          1           0        1.558996   -0.760848   -1.541928
      9          8           0       -0.134686    1.392106    0.648516
     10          8           0       -1.038647   -0.760003   -0.080750
     11          1           0       -0.630731    1.346035   -1.483850
     12          1           0        0.221299    1.097993    1.488987
     13          6           0       -2.431047   -0.694710    0.120779
     14          1           0       -2.815378   -1.713099    0.200572
     15          1           0       -2.934496   -0.198177   -0.717525
     16          1           0       -2.677719   -0.154041    1.039430
 ---------------------------------------------------------------------

 SCF Done:  E(RPBE1PBE) =  -559.922446474     A.U. after   12 cycles

 The electronic state is 1-A.
 Alpha  occ. eigenvalues --  -66.19720 -19.21219 -19.18439 -10.25936 -10.21485
 Alpha  occ. eigenvalues --  -10.19406  -5.29566  -3.63508  -3.62669  -3.62505
 Alpha  occ. eigenvalues --   -1.12526  -1.02420  -0.77546  -0.69824  -0.64127
 Alpha  occ. eigenvalues --   -0.61974  -0.51598  -0.48007  -0.46815  -0.45878
 Alpha  occ. eigenvalues --   -0.43882  -0.43096  -0.41804  -0.39361  -0.36107
 Alpha  occ. eigenvalues --   -0.35574  -0.30928  -0.29520  -0.28181
 Alpha virt. eigenvalues --    0.01635   0.06216   0.06732   0.08540   0.09141
 Alpha virt. eigenvalues --    0.10568   0.11468   0.12141   0.12583   0.13475
 Alpha virt. eigenvalues --    0.15318   0.15792   0.17223   0.17807   0.19836

 Mulliken atomic charges:
              1
     1  H    0.130980
     2  C   -0.402515
     3  C   -0.344971
     4  H    0.095706
     5  H    0.145700
     6  H    0.113846
     7  Si   0.440747
     8  H    0.112701
     9  O   -0.297769
    10  O   -0.367531
    11  H   -0.104201
    12  H    0.338242
    13  C   -0.212037
    14  H    0.127543
    15  H    0.117825
    16  H    0.105734
 Sum of Mulliken atomic charges =   0.00000

 Dipole moment (field-independent basis, Debye):
    X=              0.2535    Y=              0.1554    Z=              1.8400  Tot=              1.8638
 Quadrupole moment (field-independent basis, Debye-Ang):
   XX=            -42.0156   YY=            -47.6964   ZZ=            -42.7990
   XY=              1.4122   XZ=             -0.1358   YZ=              1.8721

 Normal termination of Gaussian 09 at Thu Aug  9 22:37:47 2018.
