 Gaussian 09, Revision C.01,
 Gaussian 09:  EM64L-G09RevC.01 23-Sep-2011

 --------------------------------------
 #SP PBE1PBE/Def2TZVP geom=connectivity
 --------------------------------------

 99/5=1,9=1/99;
 --------------
 Structure: 141
 --------------
 Charge =  0 Multiplicity = 1

                         Standard orientation:
 ---------------------------------------------------------------------
 Center     Atomic      Atomic             Coordinates (Angstroms)
 Number     Number       Type             X           Y           Z
 ---------------------------------------------------------------------
      1          1           0       -3.229339   -1.208809   -0.454120
      2          6           0       -2.234579   -0.790477   -0.627614
      3          6           0       -1.621060   -0.246262    0.661770
      4          1           0       -2.347431   -0.007346   -1.383448
      5          1           0       -1.614215   -1.579828   -1.059218
      6          1           0       -2.257857    0.537564    1.086633
      7         14           0        0.090973    0.455333    0.464457
      8          1           0       -1.566543   -1.037012    1.417556
      9          8           0        0.148973    1.661918   -0.558699
     10          8           0        1.034524   -0.799652   -0.018028
     11          1           0        0.629866    1.042070    1.718289
     12          1           0       -0.205444    1.515729   -1.437623
     13          6           0        2.427591   -0.706250   -0.203214
     14          1           0        2.808936   -1.698076   -0.452314
     15          1           0        2.930608   -0.359390    0.707513
     16          1           0        2.678110   -0.019760   -1.017500
 ---------------------------------------------------------------------

 SCF Done:  E(RPBE1PBE) =  -560.058542084     A.U. after   12 cycles

 The electronic state is 1-A.
 Alpha  occ. eigenvalues --  -66.24525 -19.20620 -19.19703 -10.26338 -10.21672
 Alpha  occ. eigenvalues --  -10.20589  -5.32385  -3.65916  -3.65793  -3.65644
 Alpha  occ. eigenvalues --   -1.05153  -1.02926  -0.78068  -0.70373  -0.63943
 Alpha  occ. eigenvalues --   -0.57645  -0.51329  -0.46737  -0.46533  -0.45990
 Alpha  occ. eigenvalues --   -0.43478  -0.40729  -0.39926  -0.37322  -0.37034
 Alpha  occ. eigenvalues --   -0.35880  -0.31763  -0.30279  -0.29430
 Alpha virt. eigenvalues --    0.02248   0.05757   0.06174   0.08132   0.09019
 Alpha virt. eigenvalues --    0.10280   0.11013   0.11622   0.12379   0.13526
 Alpha virt. eigenvalues --    0.14404   0.15306   0.16312   0.16828   0.19423

 Mulliken atomic charges:
              1
     1  H    0.130283
     2  C   -0.394881
     3  C   -0.311629
     4  H    0.103338
     5  H    0.142988
     6  H    0.119833
     7  Si   0.523409
     8  H    0.116762
     9  O   -0.490770
    10  O   -0.342853
    11  H   -0.070355
    12  H    0.321814
    13  C   -0.210891
    14  H    0.128456
    15  H    0.117488
    16  H    0.117008
 Sum of Mulliken atomic charges =   0.00000

 Dipole moment (field-independent basis, Debye):
    X=             -0.2765    Y=             -0.3908    Z=             -1.0557  Tot=              1.1592
 Quadrupole moment (field-independent basis, Debye-Ang):
   XX=            -41.3573   YY=            -48.9036   ZZ=            -42.8662
   XY=             -1.5970   XZ=             -0.1844   YZ=             -1.7554

 Normal termination of Gaussian 09 at Fri Aug 10 02:00:02 2018.
