 Gaussian 09, Revision C.01,
 Gaussian 09:  EM64L-G09RevC.01 23-Sep-2011

 --------------------------------------
 #SP PBE1PBE/Def2TZVP geom=connectivity
 --------------------------------------

 99/5=1,9=1/99;
 --------------
 Structure: 102
 --------------
 Charge =  0 Multiplicity = 1

                         Standard orientation:
 ---------------------------------------------------------------------
 Center     Atomic      Atomic             Coordinates (Angstroms)
 Number     Number       Type             X           Y           Z
 ---------------------------------------------------------------------
      1          1           0       -3.227961   -1.222374   -0.405710
      2          6           0       -2.233721   -0.811270   -0.598398
      3          6           0       -1.620067   -0.209073    0.664881
      4          1           0       -2.347775   -0.062996   -1.388583
      5          1           0       -1.612784   -1.618596   -0.994468
      6          1           0       -2.257434    0.592414    1.054473
      7         14           0        0.091145    0.484651    0.435256
      8          1           0       -1.564340   -0.965018    1.455394
      9          8           0        0.144827    1.587353   -0.588122
     10          8           0        1.035716   -0.789803    0.009087
     11          1           0        0.630111    1.127655    1.661152
     12          1           0       -0.209502    1.400591   -1.459163
     13          6           0        2.428588   -0.703430   -0.180917
     14          1           0        2.810809   -1.705066   -0.385433
     15          1           0        2.931739   -0.315509    0.713016
     16          1           0        2.677971   -0.053965   -1.025365
 ---------------------------------------------------------------------

 SCF Done:  E(RPBE1PBE) =  -560.045878771     A.U. after   13 cycles

 The electronic state is 1-A.
 Alpha  occ. eigenvalues --  -66.23396 -19.20964 -19.19339 -10.26214 -10.21608
 Alpha  occ. eigenvalues --  -10.20261  -5.31585  -3.65144  -3.64967  -3.64811
 Alpha  occ. eigenvalues --   -1.06908  -1.02966  -0.77909  -0.70206  -0.63840
 Alpha  occ. eigenvalues --   -0.58917  -0.51405  -0.46684  -0.46477  -0.46032
 Alpha  occ. eigenvalues --   -0.43407  -0.41052  -0.40465  -0.38464  -0.36824
 Alpha  occ. eigenvalues --   -0.35843  -0.31563  -0.30069  -0.29104
 Alpha virt. eigenvalues --    0.02141   0.05958   0.06327   0.08263   0.09069
 Alpha virt. eigenvalues --    0.10386   0.11166   0.11817   0.12455   0.13540
 Alpha virt. eigenvalues --    0.14799   0.15377   0.16567   0.17156   0.19564

 Mulliken atomic charges:
              1
     1  H    0.130413
     2  C   -0.396738
     3  C   -0.319670
     4  H    0.101016
     5  H    0.143629
     6  H    0.118138
     7  Si   0.500939
     8  H    0.115516
     9  O   -0.440515
    10  O   -0.348161
    11  H   -0.078966
    12  H    0.325747
    13  C   -0.210748
    14  H    0.128147
    15  H    0.117467
    16  H    0.113785
 Sum of Mulliken atomic charges =   0.00000

 Dipole moment (field-independent basis, Debye):
    X=             -0.2684    Y=             -0.1969    Z=             -1.2601  Tot=              1.3033
 Quadrupole moment (field-independent basis, Debye-Ang):
   XX=            -41.5607   YY=            -48.5050   ZZ=            -42.8679
   XY=             -1.5365   XZ=             -0.1682   YZ=             -1.7637

 Normal termination of Gaussian 09 at Thu Aug  9 22:53:14 2018.
