 Gaussian 09, Revision C.01,
 Gaussian 09:  EM64L-G09RevC.01 23-Sep-2011

 --------------------------------------
 #SP PBE1PBE/Def2TZVP geom=connectivity
 --------------------------------------

 99/5=1,9=1/99;
 --------------
 Structure: 178
 --------------
 Charge =  0 Multiplicity = 1

                         Standard orientation:
 ---------------------------------------------------------------------
 Center     Atomic      Atomic             Coordinates (Angstroms)
 Number     Number       Type             X           Y           Z
 ---------------------------------------------------------------------
      1          1           0       -3.230820   -1.194608   -0.498125
      2          6           0       -2.235504   -0.770583   -0.653685
      3          6           0       -1.622136   -0.280707    0.657378
      4          1           0       -2.347065    0.043187   -1.376628
      5          1           0       -1.615752   -1.542147   -1.117156
      6          1           0       -2.258322    0.485634    1.113877
      7         14           0        0.090775    0.426524    0.490087
      8          1           0       -1.568918   -1.102022    1.379928
      9          8           0        0.153378    1.733330   -0.528870
     10          8           0        1.033235   -0.808538   -0.043258
     11          1           0        0.629584    0.960436    1.767344
     12          1           0       -0.200212    1.623209   -1.412139
     13          6           0        2.426510   -0.709127   -0.223693
     14          1           0        2.806916   -1.690257   -0.513296
     15          1           0        2.929379   -0.400694    0.700835
     16          1           0        2.678247    0.010091   -1.008833
 ---------------------------------------------------------------------

 SCF Done:  E(RPBE1PBE) =  -560.061264034     A.U. after   12 cycles

 The electronic state is 1-A.
 Alpha  occ. eigenvalues --  -66.25501 -19.20186 -19.20064 -10.26468 -10.21742
 Alpha  occ. eigenvalues --  -10.20905  -5.33137  -3.66662  -3.66554  -3.66409
 Alpha  occ. eigenvalues --   -1.04402  -1.02136  -0.78230  -0.70544  -0.64074
 Alpha  occ. eigenvalues --   -0.56575  -0.51149  -0.46865  -0.46638  -0.45982
 Alpha  occ. eigenvalues --   -0.43580  -0.40981  -0.38961  -0.37241  -0.36538
 Alpha  occ. eigenvalues --   -0.35592  -0.31895  -0.30467  -0.29723
 Alpha virt. eigenvalues --    0.02303   0.05515   0.06021   0.07998   0.08967
 Alpha virt. eigenvalues --    0.10158   0.10830   0.11380   0.12296   0.13488
 Alpha virt. eigenvalues --    0.14001   0.15226   0.16055   0.16511   0.19275

 Mulliken atomic charges:
              1
     1  H    0.130211
     2  C   -0.393309
     3  C   -0.304896
     4  H    0.105739
     5  H    0.142419
     6  H    0.121487
     7  Si   0.540796
     8  H    0.118032
     9  O   -0.532419
    10  O   -0.338748
    11  H   -0.062615
    12  H    0.318133
    13  C   -0.211358
    14  H    0.128811
    15  H    0.117579
    16  H    0.120137
 Sum of Mulliken atomic charges =   0.00000

 Dipole moment (field-independent basis, Debye):
    X=             -0.2839    Y=             -0.6083    Z=             -0.8701  Tot=              1.0989
 Quadrupole moment (field-independent basis, Debye-Ang):
   XX=            -41.1492   YY=            -49.3403   ZZ=            -42.8561
   XY=             -1.6582   XZ=             -0.2053   YZ=             -1.7572

 Normal termination of Gaussian 09 at Fri Aug 10 05:58:19 2018.
