 Gaussian 09, Revision C.01,
 Gaussian 09:  EM64L-G09RevC.01 23-Sep-2011

 --------------------------------------
 #SP PBE1PBE/Def2TZVP geom=connectivity
 --------------------------------------

 99/5=1,9=1/99;
 --------------
 Structure: 169
 --------------
 Charge =  0 Multiplicity = 1

                         Standard orientation:
 ---------------------------------------------------------------------
 Center     Atomic      Atomic             Coordinates (Angstroms)
 Number     Number       Type             X           Y           Z
 ---------------------------------------------------------------------
      1          1           0       -3.230490   -1.198279   -0.487098
      2          6           0       -2.235307   -0.775638   -0.647204
      3          6           0       -1.621890   -0.271970    0.658599
      4          1           0       -2.347179    0.030527   -1.378571
      5          1           0       -1.615415   -1.551827   -1.102698
      6          1           0       -2.258215    0.498919    1.107177
      7         14           0        0.090813    0.433927    0.483712
      8          1           0       -1.568358   -1.085699    1.389659
      9          8           0        0.152404    1.715284   -0.536511
     10          8           0        1.033525   -0.806378   -0.036867
     11          1           0        0.629655    0.981257    1.755263
     12          1           0       -0.201349    1.595673   -1.419514
     13          6           0        2.426749   -0.708489   -0.218520
     14          1           0        2.807374   -1.692483   -0.497938
     15          1           0        2.929663   -0.390309    0.702674
     16          1           0        2.678191    0.002576   -1.011145
 ---------------------------------------------------------------------

 SCF Done:  E(RPBE1PBE) =  -560.061265154     A.U. after   12 cycles

 The electronic state is 1-A.
 Alpha  occ. eigenvalues --  -66.25261 -19.20310 -19.19972 -10.26434 -10.21724
 Alpha  occ. eigenvalues --  -10.20825  -5.32947  -3.66473  -3.66362  -3.66217
 Alpha  occ. eigenvalues --   -1.04484  -1.02419  -0.78189  -0.70500  -0.64038
 Alpha  occ. eigenvalues --   -0.56817  -0.51208  -0.46828  -0.46609  -0.45980
 Alpha  occ. eigenvalues --   -0.43552  -0.40912  -0.39197  -0.37212  -0.36650
 Alpha  occ. eigenvalues --   -0.35726  -0.31870  -0.30422  -0.29651
 Alpha virt. eigenvalues --    0.02289   0.05580   0.06061   0.08033   0.08979
 Alpha virt. eigenvalues --    0.10191   0.10881   0.11447   0.12318   0.13501
 Alpha virt. eigenvalues --    0.14104   0.15248   0.16121   0.16588   0.19313

 Mulliken atomic charges:
              1
     1  H    0.130227
     2  C   -0.393717
     3  C   -0.306500
     4  H    0.105120
     5  H    0.142563
     6  H    0.121068
     7  Si   0.536756
     8  H    0.117708
     9  O   -0.522510
    10  O   -0.339724
    11  H   -0.064551
    12  H    0.319160
    13  C   -0.211206
    14  H    0.128717
    15  H    0.117556
    16  H    0.119332
 Sum of Mulliken atomic charges =   0.00000

 Dipole moment (field-independent basis, Debye):
    X=             -0.2820    Y=             -0.5512    Z=             -0.9171  Tot=              1.1065
 Quadrupole moment (field-independent basis, Debye-Ang):
   XX=            -41.2037   YY=            -49.2277   ZZ=            -42.8581
   XY=             -1.6421   XZ=             -0.2004   YZ=             -1.7556

 Normal termination of Gaussian 09 at Fri Aug 10 05:00:31 2018.
