 Gaussian 09, Revision C.01,
 Gaussian 09:  EM64L-G09RevC.01 23-Sep-2011

 --------------------------------------
 #SP PBE1PBE/Def2TZVP geom=connectivity
 --------------------------------------

 99/5=1,9=1/99;
 --------------
 Structure: 154
 --------------
 Charge =  0 Multiplicity = 1

                         Standard orientation:
 ---------------------------------------------------------------------
 Center     Atomic      Atomic             Coordinates (Angstroms)
 Number     Number       Type             X           Y           Z
 ---------------------------------------------------------------------
      1          1           0       -3.229749   -1.204079   -0.469880
      2          6           0       -2.234820   -0.783560   -0.637004
      3          6           0       -1.621363   -0.258629    0.660380
      4          1           0       -2.347276    0.010673   -1.381222
      5          1           0       -1.614633   -1.566662   -1.080094
      6          1           0       -2.257983    0.519053    1.096645
      7         14           0        0.090935    0.445237    0.473749
      8          1           0       -1.567245   -1.060460    1.404427
      9          8           0        0.150109    1.687231   -0.548421
     10          8           0        1.034167   -0.802803   -0.027027
     11          1           0        0.629787    1.013235    1.736198
     12          1           0       -0.203712    1.553461   -1.428327
     13          6           0        2.427299   -0.707137   -0.210563
     14          1           0        2.808366   -1.695306   -0.474200
     15          1           0        2.930260   -0.373917    0.705273
     16          1           0        2.678193   -0.008792   -1.014588
 ---------------------------------------------------------------------

 SCF Done:  E(RPBE1PBE) =  -560.060384130     A.U. after   12 cycles

 The electronic state is 1-A.
 Alpha  occ. eigenvalues --  -66.24883 -19.20470 -19.19833 -10.26385 -10.21696
 Alpha  occ. eigenvalues --  -10.20701  -5.32655  -3.66182  -3.66067  -3.65921
 Alpha  occ. eigenvalues --   -1.04764  -1.02772  -0.78125  -0.70434  -0.63987
 Alpha  occ. eigenvalues --   -0.57254  -0.51286  -0.46778  -0.46568  -0.45983
 Alpha  occ. eigenvalues --   -0.43512  -0.40813  -0.39580  -0.37171  -0.36916
 Alpha  occ. eigenvalues --   -0.35844  -0.31822  -0.30350  -0.29538
 Alpha virt. eigenvalues --    0.02281   0.05677   0.06123   0.08085   0.09004
 Alpha virt. eigenvalues --    0.10239   0.10953   0.11542   0.12350   0.13517
 Alpha virt. eigenvalues --    0.14260   0.15281   0.16226   0.16716   0.19373

 Mulliken atomic charges:
              1
     1  H    0.130253
     2  C   -0.394332
     3  C   -0.309135
     4  H    0.104199
     5  H    0.142782
     6  H    0.120422
     7  Si   0.530050
     8  H    0.117201
     9  O   -0.506050
    10  O   -0.341302
    11  H   -0.067563
    12  H    0.320286
    13  C   -0.211039
    14  H    0.128583
    15  H    0.117522
    16  H    0.118123
 Sum of Mulliken atomic charges =   0.00000

 Dipole moment (field-independent basis, Debye):
    X=             -0.2780    Y=             -0.4659    Z=             -0.9873  Tot=              1.1266
 Quadrupole moment (field-independent basis, Debye-Ang):
   XX=            -41.2824   YY=            -49.0551   ZZ=            -42.8666
   XY=             -1.6165   XZ=             -0.1921   YZ=             -1.7503

 Normal termination of Gaussian 09 at Fri Aug 10 03:23:53 2018.
