 Gaussian 09, Revision C.01,
 Gaussian 09:  EM64L-G09RevC.01 23-Sep-2011

 --------------------------------------
 #SP PBE1PBE/Def2TZVP geom=connectivity
 --------------------------------------

 99/5=1,9=1/99;
 --------------
 Structure: 152
 --------------
 Charge =  0 Multiplicity = 1

                         Standard orientation:
 ---------------------------------------------------------------------
 Center     Atomic      Atomic             Coordinates (Angstroms)
 Number     Number       Type             X           Y           Z
 ---------------------------------------------------------------------
      1          1           0       -3.229846   -1.204560   -0.467654
      2          6           0       -2.234907   -0.784431   -0.635689
      3          6           0       -1.621417   -0.256746    0.660561
      4          1           0       -2.347347    0.008213   -1.381603
      5          1           0       -1.614750   -1.568498   -1.077113
      6          1           0       -2.258006    0.521887    1.095170
      7         14           0        0.090901    0.446666    0.472402
      8          1           0       -1.567313   -1.056987    1.406320
      9          8           0        0.150557    1.683833   -0.549806
     10          8           0        1.034088   -0.802472   -0.025716
     11          1           0        0.629787    1.017345    1.733628
     12          1           0       -0.204262    1.547590   -1.430238
     13          6           0        2.427220   -0.707242   -0.209474
     14          1           0        2.808253   -1.695984   -0.471002
     15          1           0        2.930203   -0.372080    0.705640
     16          1           0        2.678125   -0.010625   -1.014994
 ---------------------------------------------------------------------

 SCF Done:  E(RPBE1PBE) =  -560.060188400     A.U. after   12 cycles

 The electronic state is 1-A.
 Alpha  occ. eigenvalues --  -66.24833 -19.20502 -19.19814 -10.26377 -10.21694
 Alpha  occ. eigenvalues --  -10.20687  -5.32617  -3.66144  -3.66028  -3.65881
 Alpha  occ. eigenvalues --   -1.04799  -1.02790  -0.78119  -0.70425  -0.63982
 Alpha  occ. eigenvalues --   -0.57286  -0.51289  -0.46771  -0.46563  -0.45986
 Alpha  occ. eigenvalues --   -0.43508  -0.40800  -0.39630  -0.37171  -0.36948
 Alpha  occ. eigenvalues --   -0.35853  -0.31813  -0.30341  -0.29524
 Alpha virt. eigenvalues --    0.02266   0.05688   0.06129   0.08091   0.09003
 Alpha virt. eigenvalues --    0.10244   0.10960   0.11554   0.12354   0.13517
 Alpha virt. eigenvalues --    0.14282   0.15283   0.16235   0.16728   0.19379

 Mulliken atomic charges:
              1
     1  H    0.130267
     2  C   -0.394414
     3  C   -0.309487
     4  H    0.104062
     5  H    0.142829
     6  H    0.120358
     7  Si   0.529017
     8  H    0.117163
     9  O   -0.504066
    10  O   -0.341514
    11  H   -0.067963
    12  H    0.320696
    13  C   -0.211000
    14  H    0.128560
    15  H    0.117515
    16  H    0.117976
 Sum of Mulliken atomic charges =   0.00000

 Dipole moment (field-independent basis, Debye):
    X=             -0.2800    Y=             -0.4566    Z=             -0.9974  Tot=              1.1321
 Quadrupole moment (field-independent basis, Debye-Ang):
   XX=            -41.2931   YY=            -49.0379   ZZ=            -42.8663
   XY=             -1.6161   XZ=             -0.1897   YZ=             -1.7501

 Normal termination of Gaussian 09 at Fri Aug 10 03:11:00 2018.
