 Gaussian 09, Revision C.01,
 Gaussian 09:  EM64L-G09RevC.01 23-Sep-2011

 --------------------------------------
 #SP PBE1PBE/Def2TZVP geom=connectivity
 --------------------------------------

 99/5=1,9=1/99;
 --------------
 Structure: 162
 --------------
 Charge =  0 Multiplicity = 1

                         Standard orientation:
 ---------------------------------------------------------------------
 Center     Atomic      Atomic             Coordinates (Angstroms)
 Number     Number       Type             X           Y           Z
 ---------------------------------------------------------------------
      1          1           0       -3.230193   -1.200889   -0.479120
      2          6           0       -2.235118   -0.779240   -0.642483
      3          6           0       -1.621679   -0.265691    0.659456
      4          1           0       -2.347240    0.021410   -1.379844
      5          1           0       -1.615103   -1.558679   -1.092225
      6          1           0       -2.258127    0.508391    1.102324
      7         14           0        0.090852    0.439249    0.479121
      8          1           0       -1.567896   -1.073921    1.396573
      9          8           0        0.151511    1.702010   -0.542124
     10          8           0        1.033782   -0.804709   -0.032268
     11          1           0        0.629704    0.996187    1.746489
     12          1           0       -0.202304    1.575724   -1.424171
     13          6           0        2.426967   -0.707878   -0.214791
     14          1           0        2.807777   -1.693851   -0.486884
     15          1           0        2.929904   -0.382712    0.703948
     16          1           0        2.678174   -0.002704   -1.012735
 ---------------------------------------------------------------------

 SCF Done:  E(RPBE1PBE) =  -560.060990766     A.U. after   12 cycles

 The electronic state is 1-A.
 Alpha  occ. eigenvalues --  -66.25085 -19.20390 -19.19905 -10.26410 -10.21710
 Alpha  occ. eigenvalues --  -10.20766  -5.32810  -3.66336  -3.66223  -3.66078
 Alpha  occ. eigenvalues --   -1.04587  -1.02599  -0.78158  -0.70468  -0.64014
 Alpha  occ. eigenvalues --   -0.57012  -0.51245  -0.46803  -0.46589  -0.45981
 Alpha  occ. eigenvalues --   -0.43532  -0.40864  -0.39373  -0.37190  -0.36764
 Alpha  occ. eigenvalues --   -0.35794  -0.31848  -0.30387  -0.29598
 Alpha virt. eigenvalues --    0.02283   0.05626   0.06090   0.08057   0.08989
 Alpha virt. eigenvalues --    0.10214   0.10916   0.11492   0.12334   0.13509
 Alpha virt. eigenvalues --    0.14177   0.15263   0.16169   0.16648   0.19341

 Mulliken atomic charges:
              1
     1  H    0.130239
     2  C   -0.394012
     3  C   -0.307708
     4  H    0.104680
     5  H    0.142668
     6  H    0.120761
     7  Si   0.533681
     8  H    0.117469
     9  O   -0.514990
    10  O   -0.340455
    11  H   -0.065948
    12  H    0.319790
    13  C   -0.211114
    14  H    0.128650
    15  H    0.117534
    16  H    0.118756
 Sum of Mulliken atomic charges =   0.00000

 Dipole moment (field-independent basis, Debye):
    X=             -0.2804    Y=             -0.5103    Z=             -0.9503  Tot=              1.1144
 Quadrupole moment (field-independent basis, Debye-Ang):
   XX=            -41.2422   YY=            -49.1457   ZZ=            -42.8605
   XY=             -1.6300   XZ=             -0.1964   YZ=             -1.7534

 Normal termination of Gaussian 09 at Fri Aug 10 04:15:21 2018.
