 Gaussian 09, Revision C.01,
 Gaussian 09:  EM64L-G09RevC.01 23-Sep-2011

 --------------------------------------
 #SP PBE1PBE/Def2TZVP geom=connectivity
 --------------------------------------

 99/5=1,9=1/99;
 --------------
 Structure: 138
 --------------
 Charge =  0 Multiplicity = 1

                         Standard orientation:
 ---------------------------------------------------------------------
 Center     Atomic      Atomic             Coordinates (Angstroms)
 Number     Number       Type             X           Y           Z
 ---------------------------------------------------------------------
      1          1           0       -3.229274   -1.209646   -0.451080
      2          6           0       -2.234542   -0.791754   -0.625790
      3          6           0       -1.621013   -0.243854    0.662027
      4          1           0       -2.347458   -0.010776   -1.383838
      5          1           0       -1.614148   -1.582293   -1.055174
      6          1           0       -2.257838    0.541140    1.084685
      7         14           0        0.090977    0.457271    0.462673
      8          1           0       -1.566430   -1.032454    1.420050
      9          8           0        0.148837    1.657083   -0.560899
     10          8           0        1.034581   -0.799025   -0.016281
     11          1           0        0.629877    1.047589    1.714820
     12          1           0       -0.206029    1.507342   -1.438079
     13          6           0        2.427638   -0.706074   -0.201774
     14          1           0        2.809028   -1.698582   -0.448073
     15          1           0        2.930664   -0.356607    0.707950
     16          1           0        2.678094   -0.021882   -1.018011
 ---------------------------------------------------------------------

 SCF Done:  E(RPBE1PBE) =  -560.058074650     A.U. after   12 cycles

 The electronic state is 1-A.
 Alpha  occ. eigenvalues --  -66.24459 -19.20639 -19.19681 -10.26331 -10.21670
 Alpha  occ. eigenvalues --  -10.20571  -5.32336  -3.65868  -3.65743  -3.65594
 Alpha  occ. eigenvalues --   -1.05260  -1.02953  -0.78060  -0.70363  -0.63938
 Alpha  occ. eigenvalues --   -0.57729  -0.51339  -0.46731  -0.46529  -0.45996
 Alpha  occ. eigenvalues --   -0.43474  -0.40718  -0.40001  -0.37388  -0.37028
 Alpha  occ. eigenvalues --   -0.35885  -0.31753  -0.30268  -0.29413
 Alpha virt. eigenvalues --    0.02250   0.05772   0.06186   0.08140   0.09026
 Alpha virt. eigenvalues --    0.10287   0.11022   0.11635   0.12384   0.13528
 Alpha virt. eigenvalues --    0.14428   0.15312   0.16330   0.16852   0.19433

 Mulliken atomic charges:
              1
     1  H    0.130300
     2  C   -0.395013
     3  C   -0.312140
     4  H    0.103212
     5  H    0.143045
     6  H    0.119747
     7  Si   0.521943
     8  H    0.116701
     9  O   -0.487449
    10  O   -0.343152
    11  H   -0.070885
    12  H    0.321820
    13  C   -0.210877
    14  H    0.128436
    15  H    0.117483
    16  H    0.116829
 Sum of Mulliken atomic charges =   0.00000

 Dipole moment (field-independent basis, Debye):
    X=             -0.2772    Y=             -0.3797    Z=             -1.0656  Tot=              1.1647
 Quadrupole moment (field-independent basis, Debye-Ang):
   XX=            -41.3671   YY=            -48.8803   ZZ=            -42.8721
   XY=             -1.5931   XZ=             -0.1825   YZ=             -1.7479

 Normal termination of Gaussian 09 at Fri Aug 10 01:40:32 2018.
