 Gaussian 09, Revision C.01,
 Gaussian 09:  EM64L-G09RevC.01 23-Sep-2011

 --------------------------------------
 #SP PBE1PBE/Def2TZVP geom=connectivity
 --------------------------------------

 99/5=1,9=1/99;
 --------------
 Structure: 121
 --------------
 Charge =  0 Multiplicity = 1

                         Standard orientation:
 ---------------------------------------------------------------------
 Center     Atomic      Atomic             Coordinates (Angstroms)
 Number     Number       Type             X           Y           Z
 ---------------------------------------------------------------------
      1          1           0       -3.228572   -1.216014   -0.429635
      2          6           0       -2.234094   -0.801196   -0.612905
      3          6           0       -1.620508   -0.227430    0.663570
      4          1           0       -2.347595   -0.035540   -1.386340
      5          1           0       -1.613416   -1.599831   -1.026611
      6          1           0       -2.257617    0.565518    1.070666
      7         14           0        0.091080    0.470427    0.449823
      8          1           0       -1.565337   -1.000736    1.437148
      9          8           0        0.146614    1.623968   -0.574035
     10          8           0        1.035188   -0.794701   -0.004244
     11          1           0        0.630007    1.085855    1.689810
     12          1           0       -0.207564    1.456721   -1.449093
     13          6           0        2.428151   -0.704777   -0.191924
     14          1           0        2.809973   -1.701809   -0.418492
     15          1           0        2.931236   -0.336996    0.710518
     16          1           0        2.678056   -0.036869   -1.021705
 ---------------------------------------------------------------------

 SCF Done:  E(RPBE1PBE) =  -560.053584442     A.U. after   12 cycles

 The electronic state is 1-A.
 Alpha  occ. eigenvalues --  -66.23965 -19.20809 -19.19518 -10.26275 -10.21638
 Alpha  occ. eigenvalues --  -10.20421  -5.31979  -3.65520  -3.65377  -3.65224
 Alpha  occ. eigenvalues --   -1.05980  -1.03002  -0.77986  -0.70288  -0.63885
 Alpha  occ. eigenvalues --   -0.58282  -0.51379  -0.46695  -0.46496  -0.46011
 Alpha  occ. eigenvalues --   -0.43436  -0.40676  -0.40410  -0.37887  -0.36941
 Alpha  occ. eigenvalues --   -0.35876  -0.31668  -0.30174  -0.29267
 Alpha virt. eigenvalues --    0.02201   0.05867   0.06253   0.08200   0.09046
 Alpha virt. eigenvalues --    0.10336   0.11094   0.11728   0.12419   0.13536
 Alpha virt. eigenvalues --    0.14611   0.15342   0.16444   0.16998   0.19497

 Mulliken atomic charges:
              1
     1  H    0.130344
     2  C   -0.395822
     3  C   -0.315591
     4  H    0.102149
     5  H    0.143305
     6  H    0.118971
     7  Si   0.512342
     8  H    0.116112
     9  O   -0.465809
    10  O   -0.345410
    11  H   -0.074677
    12  H    0.323732
    13  C   -0.210781
    14  H    0.128297
    15  H    0.117475
    16  H    0.115361
 Sum of Mulliken atomic charges =   0.00000

 Dipole moment (field-independent basis, Debye):
    X=             -0.2716    Y=             -0.2890    Z=             -1.1582  Tot=              1.2242
 Quadrupole moment (field-independent basis, Debye-Ang):
   XX=            -41.4617   YY=            -48.6965   ZZ=            -42.8694
   XY=             -1.5644   XZ=             -0.1762   YZ=             -1.7554

 Normal termination of Gaussian 09 at Thu Aug  9 23:50:06 2018.
