 Gaussian 09, Revision C.01,
 Gaussian 09:  EM64L-G09RevC.01 23-Sep-2011

 --------------------------------------
 #SP PBE1PBE/Def2TZVP geom=connectivity
 --------------------------------------

 99/5=1,9=1/99;
 --------------
 Structure: 103
 --------------
 Charge =  0 Multiplicity = 1

                         Standard orientation:
 ---------------------------------------------------------------------
 Center     Atomic      Atomic             Coordinates (Angstroms)
 Number     Number       Type             X           Y           Z
 ---------------------------------------------------------------------
      1          1           0       -3.227959   -1.222068   -0.407162
      2          6           0       -2.233714   -0.810707   -0.599281
      3          6           0       -1.620058   -0.210259    0.664829
      4          1           0       -2.347759   -0.061344   -1.388433
      5          1           0       -1.612784   -1.617493   -0.996462
      6          1           0       -2.257419    0.590696    1.055525
      7         14           0        0.091160    0.483765    0.436166
      8          1           0       -1.564340   -0.967294    1.454299
      9          8           0        0.144875    1.589750   -0.587269
     10          8           0        1.035721   -0.790109    0.008242
     11          1           0        0.630130    1.125073    1.662949
     12          1           0       -0.210362    1.403816   -1.458392
     13          6           0        2.428595   -0.703486   -0.181638
     14          1           0        2.810807   -1.704843   -0.387534
     15          1           0        2.931746   -0.316803    0.712831
     16          1           0        2.677986   -0.052859   -1.025189
 ---------------------------------------------------------------------

 SCF Done:  E(RPBE1PBE) =  -560.046465966     A.U. after   13 cycles

 The electronic state is 1-A.
 Alpha  occ. eigenvalues --  -66.23433 -19.20958 -19.19350 -10.26218 -10.21611
 Alpha  occ. eigenvalues --  -10.20272  -5.31610  -3.65167  -3.64994  -3.64837
 Alpha  occ. eigenvalues --   -1.06842  -1.02970  -0.77916  -0.70211  -0.63842
 Alpha  occ. eigenvalues --   -0.58868  -0.51404  -0.46683  -0.46478  -0.46033
 Alpha  occ. eigenvalues --   -0.43409  -0.41021  -0.40469  -0.38427  -0.36832
 Alpha  occ. eigenvalues --   -0.35847  -0.31570  -0.30077  -0.29116
 Alpha virt. eigenvalues --    0.02142   0.05953   0.06322   0.08259   0.09068
 Alpha virt. eigenvalues --    0.10382   0.11161   0.11812   0.12452   0.13539
 Alpha virt. eigenvalues --    0.14787   0.15375   0.16559   0.17147   0.19560

 Mulliken atomic charges:
              1
     1  H    0.130416
     2  C   -0.396674
     3  C   -0.319434
     4  H    0.101069
     5  H    0.143622
     6  H    0.118205
     7  Si   0.501613
     8  H    0.115563
     9  O   -0.442160
    10  O   -0.347968
    11  H   -0.078688
    12  H    0.325659
    13  C   -0.210751
    14  H    0.128154
    15  H    0.117467
    16  H    0.113907
 Sum of Mulliken atomic charges =   0.00000

 Dipole moment (field-independent basis, Debye):
    X=             -0.2700    Y=             -0.2035    Z=             -1.2529  Tot=              1.2977
 Quadrupole moment (field-independent basis, Debye-Ang):
   XX=            -41.5528   YY=            -48.5189   ZZ=            -42.8701
   XY=             -1.5394   XZ=             -0.1665   YZ=             -1.7609

 Normal termination of Gaussian 09 at Thu Aug  9 23:00:25 2018.
