 Gaussian 09, Revision C.01,
 Gaussian 09:  EM64L-G09RevC.01 23-Sep-2011

 --------------------------------------
 #SP PBE1PBE/Def2TZVP geom=connectivity
 --------------------------------------

 99/5=1,9=1/99;
 --------------
 Structure: 148
 --------------
 Charge =  0 Multiplicity = 1

                         Standard orientation:
 ---------------------------------------------------------------------
 Center     Atomic      Atomic             Coordinates (Angstroms)
 Number     Number       Type             X           Y           Z
 ---------------------------------------------------------------------
      1          1           0       -3.229611   -1.206058   -0.462816
      2          6           0       -2.234747   -0.786530   -0.632791
      3          6           0       -1.621268   -0.252938    0.661043
      4          1           0       -2.347354    0.002740   -1.382248
      5          1           0       -1.614491   -1.572473   -1.070727
      6          1           0       -2.257956    0.527538    1.092190
      7         14           0        0.090929    0.449892    0.469634
      8          1           0       -1.566997   -1.049815    1.410383
      9          8           0        0.149762    1.675334   -0.553348
     10          8           0        1.034284   -0.801319   -0.022927
     11          1           0        0.629795    1.026310    1.728255
     12          1           0       -0.204103    1.535693   -1.432324
     13          6           0        2.427392   -0.706696   -0.207190
     14          1           0        2.808566   -1.696542   -0.464300
     15          1           0        2.930373   -0.367352    0.706383
     16          1           0        2.678142   -0.013662   -1.015841
 ---------------------------------------------------------------------

 SCF Done:  E(RPBE1PBE) =  -560.059668727     A.U. after   12 cycles

 The electronic state is 1-A.
 Alpha  occ. eigenvalues --  -66.24721 -19.20536 -19.19772 -10.26363 -10.21685
 Alpha  occ. eigenvalues --  -10.20650  -5.32532  -3.66061  -3.65942  -3.65795
 Alpha  occ. eigenvalues --   -1.04933  -1.02861  -0.78099  -0.70405  -0.63967
 Alpha  occ. eigenvalues --   -0.57439  -0.51309  -0.46758  -0.46551  -0.45987
 Alpha  occ. eigenvalues --   -0.43496  -0.40775  -0.39740  -0.37193  -0.37014
 Alpha  occ. eigenvalues --   -0.35868  -0.31796  -0.30317  -0.29490
 Alpha virt. eigenvalues --    0.02272   0.05714   0.06147   0.08106   0.09012
 Alpha virt. eigenvalues --    0.10259   0.10981   0.11579   0.12365   0.13522
 Alpha virt. eigenvalues --    0.14325   0.15293   0.16266   0.16770   0.19396

 Mulliken atomic charges:
              1
     1  H    0.130267
     2  C   -0.394600
     3  C   -0.310260
     4  H    0.103822
     5  H    0.142880
     6  H    0.120150
     7  Si   0.527038
     8  H    0.117002
     9  O   -0.499017
    10  O   -0.342004
    11  H   -0.068816
    12  H    0.320873
    13  C   -0.210963
    14  H    0.128522
    15  H    0.117497
    16  H    0.117610
 Sum of Mulliken atomic charges =   0.00000

 Dipole moment (field-independent basis, Debye):
    X=             -0.2775    Y=             -0.4310    Z=             -1.0171  Tot=              1.1390
 Quadrupole moment (field-independent basis, Debye-Ang):
   XX=            -41.3169   YY=            -48.9842   ZZ=            -42.8675
   XY=             -1.6066   XZ=             -0.1889   YZ=             -1.7494

 Normal termination of Gaussian 09 at Fri Aug 10 02:45:11 2018.
