 Gaussian 09, Revision C.01,
 Gaussian 09:  EM64L-G09RevC.01 23-Sep-2011

 --------------------------------------
 #SP PBE1PBE/Def2TZVP geom=connectivity
 --------------------------------------

 99/5=1,9=1/99;
 --------------
 Structure: 117
 --------------
 Charge =  0 Multiplicity = 1

                         Standard orientation:
 ---------------------------------------------------------------------
 Center     Atomic      Atomic             Coordinates (Angstroms)
 Number     Number       Type             X           Y           Z
 ---------------------------------------------------------------------
      1          1           0       -3.228469   -1.217200   -0.425065
      2          6           0       -2.234034   -0.803079   -0.610139
      3          6           0       -1.620432   -0.223868    0.663868
      4          1           0       -2.347637   -0.040711   -1.386800
      5          1           0       -1.613311   -1.603406   -1.020493
      6          1           0       -2.257586    0.570742    1.067638
      7         14           0        0.091087    0.473219    0.447084
      8          1           0       -1.565159   -0.993891    1.440707
      9          8           0        0.146415    1.616727   -0.577004
     10          8           0        1.035278   -0.793741   -0.001674
     11          1           0        0.630025    1.093931    1.684431
     12          1           0       -0.208631    1.445630   -1.450197
     13          6           0        2.428223   -0.704497   -0.189803
     14          1           0        2.810117   -1.702447   -0.412170
     15          1           0        2.931323   -0.332861    0.711051
     16          1           0        2.678032   -0.040084   -1.022414
 ---------------------------------------------------------------------

 SCF Done:  E(RPBE1PBE) =  -560.052336402     A.U. after   12 cycles

 The electronic state is 1-A.
 Alpha  occ. eigenvalues --  -66.23859 -19.20837 -19.19482 -10.26262 -10.21634
 Alpha  occ. eigenvalues --  -10.20392  -5.31904  -3.65447  -3.65299  -3.65146
 Alpha  occ. eigenvalues --   -1.06165  -1.03002  -0.77973  -0.70271  -0.63877
 Alpha  occ. eigenvalues --   -0.58413  -0.51386  -0.46690  -0.46491  -0.46018
 Alpha  occ. eigenvalues --   -0.43431  -0.40713  -0.40460  -0.38000  -0.36921
 Alpha  occ. eigenvalues --   -0.35873  -0.31648  -0.30154  -0.29238
 Alpha virt. eigenvalues --    0.02197   0.05886   0.06269   0.08212   0.09054
 Alpha virt. eigenvalues --    0.10346   0.11108   0.11746   0.12426   0.13537
 Alpha virt. eigenvalues --    0.14647   0.15350   0.16468   0.17032   0.19511

 Mulliken atomic charges:
              1
     1  H    0.130363
     2  C   -0.395976
     3  C   -0.316415
     4  H    0.101927
     5  H    0.143383
     6  H    0.118824
     7  Si   0.510126
     8  H    0.116014
     9  O   -0.460812
    10  O   -0.345915
    11  H   -0.075495
    12  H    0.323937
    13  C   -0.210769
    14  H    0.128263
    15  H    0.117464
    16  H    0.115081
 Sum of Mulliken atomic charges =   0.00000

 Dipole moment (field-independent basis, Debye):
    X=             -0.2729    Y=             -0.2710    Z=             -1.1755  Tot=              1.2368
 Quadrupole moment (field-independent basis, Debye-Ang):
   XX=            -41.4785   YY=            -48.6576   ZZ=            -42.8742
   XY=             -1.5603   XZ=             -0.1727   YZ=             -1.7528

 Normal termination of Gaussian 09 at Thu Aug  9 23:23:54 2018.
