 Gaussian 09, Revision C.01,
 Gaussian 09:  EM64L-G09RevC.01 23-Sep-2011

 --------------------------------------
 #SP PBE1PBE/Def2TZVP geom=connectivity
 --------------------------------------

 99/5=1,9=1/99;
 --------------
 Structure: 104
 --------------
 Charge =  0 Multiplicity = 1

                         Standard orientation:
 ---------------------------------------------------------------------
 Center     Atomic      Atomic             Coordinates (Angstroms)
 Number     Number       Type             X           Y           Z
 ---------------------------------------------------------------------
      1          1           0       -3.228104   -1.221549   -0.408347
      2          6           0       -2.233822   -0.810061   -0.599999
      3          6           0       -1.620163   -0.210991    0.664763
      4          1           0       -2.347784   -0.059858   -1.388366
      5          1           0       -1.612939   -1.616474   -0.998008
      6          1           0       -2.257476    0.589601    1.056281
      7         14           0        0.091116    0.483145    0.436888
      8          1           0       -1.564528   -0.968861    1.453437
      9          8           0        0.145377    1.591192   -0.586735
     10          8           0        1.035595   -0.790348    0.007656
     11          1           0        0.630092    1.123120    1.664365
     12          1           0       -0.209845    1.406202   -1.458065
     13          6           0        2.428481   -0.703631   -0.182087
     14          1           0        2.810625   -1.704799   -0.389024
     15          1           0        2.931632   -0.317928    0.712806
     16          1           0        2.677950   -0.052135   -1.024944
 ---------------------------------------------------------------------

 SCF Done:  E(RPBE1PBE) =  -560.046862543     A.U. after   13 cycles

 The electronic state is 1-A.
 Alpha  occ. eigenvalues --  -66.23459 -19.20951 -19.19356 -10.26219 -10.21613
 Alpha  occ. eigenvalues --  -10.20280  -5.31628  -3.65184  -3.65012  -3.64856
 Alpha  occ. eigenvalues --   -1.06800  -1.02971  -0.77919  -0.70214  -0.63845
 Alpha  occ. eigenvalues --   -0.58840  -0.51401  -0.46682  -0.46478  -0.46032
 Alpha  occ. eigenvalues --   -0.43410  -0.41000  -0.40472  -0.38401  -0.36838
 Alpha  occ. eigenvalues --   -0.35849  -0.31574  -0.30080  -0.29124
 Alpha virt. eigenvalues --    0.02145   0.05949   0.06319   0.08256   0.09066
 Alpha virt. eigenvalues --    0.10381   0.11157   0.11808   0.12451   0.13539
 Alpha virt. eigenvalues --    0.14780   0.15373   0.16552   0.17140   0.19557

 Mulliken atomic charges:
              1
     1  H    0.130414
     2  C   -0.396634
     3  C   -0.319247
     4  H    0.101125
     5  H    0.143612
     6  H    0.118241
     7  Si   0.502110
     8  H    0.115599
     9  O   -0.443305
    10  O   -0.347849
    11  H   -0.078487
    12  H    0.325575
    13  C   -0.210738
    14  H    0.128156
    15  H    0.117458
    16  H    0.113969
 Sum of Mulliken atomic charges =   0.00000

 Dipole moment (field-independent basis, Debye):
    X=             -0.2709    Y=             -0.2070    Z=             -1.2480  Tot=              1.2938
 Quadrupole moment (field-independent basis, Debye-Ang):
   XX=            -41.5494   YY=            -48.5261   ZZ=            -42.8697
   XY=             -1.5410   XZ=             -0.1671   YZ=             -1.7603

 Normal termination of Gaussian 09 at Thu Aug  9 23:07:34 2018.
