 Gaussian 09, Revision C.01,
 Gaussian 09:  EM64L-G09RevC.01 23-Sep-2011

 --------------------------------------
 #SP PBE1PBE/Def2TZVP geom=connectivity
 --------------------------------------

 99/5=1,9=1/99;
 --------------
 Structure: 158
 --------------
 Charge =  0 Multiplicity = 1

                         Standard orientation:
 ---------------------------------------------------------------------
 Center     Atomic      Atomic             Coordinates (Angstroms)
 Number     Number       Type             X           Y           Z
 ---------------------------------------------------------------------
      1          1           0       -3.230080   -1.202173   -0.474850
      2          6           0       -2.235052   -0.781090   -0.639948
      3          6           0       -1.621596   -0.262282    0.659896
      4          1           0       -2.347285    0.016595   -1.380499
      5          1           0       -1.614988   -1.562263   -1.086600
      6          1           0       -2.258093    0.513507    1.099697
      7         14           0        0.090861    0.442089    0.476658
      8          1           0       -1.567702   -1.067553    1.400236
      9          8           0        0.151282    1.694857   -0.545258
     10          8           0        1.033880   -0.803817   -0.029800
     11          1           0        0.629724    1.004140    1.741762
     12          1           0       -0.203404    1.564840   -1.425650
     13          6           0        2.427047   -0.707589   -0.212778
     14          1           0        2.807935   -1.694607   -0.480945
     15          1           0        2.930000   -0.378705    0.704628
     16          1           0        2.678149   -0.005588   -1.013548
 ---------------------------------------------------------------------

 SCF Done:  E(RPBE1PBE) =  -560.060744312     A.U. after   12 cycles

 The electronic state is 1-A.
 Alpha  occ. eigenvalues --  -66.24990 -19.20427 -19.19869 -10.26397 -10.21705
 Alpha  occ. eigenvalues --  -10.20738  -5.32737  -3.66264  -3.66150  -3.66004
 Alpha  occ. eigenvalues --   -1.04666  -1.02690  -0.78145  -0.70451  -0.64003
 Alpha  occ. eigenvalues --   -0.57126  -0.51265  -0.46790  -0.46578  -0.45985
 Alpha  occ. eigenvalues --   -0.43524  -0.40842  -0.39473  -0.37181  -0.36834
 Alpha  occ. eigenvalues --   -0.35823  -0.31835  -0.30370  -0.29571
 Alpha virt. eigenvalues --    0.02284   0.05650   0.06106   0.08070   0.08997
 Alpha virt. eigenvalues --    0.10226   0.10932   0.11516   0.12341   0.13512
 Alpha virt. eigenvalues --    0.14216   0.15272   0.16196   0.16681   0.19356

 Mulliken atomic charges:
              1
     1  H    0.130253
     2  C   -0.394151
     3  C   -0.308418
     4  H    0.104447
     5  H    0.142740
     6  H    0.120614
     7  Si   0.531907
     8  H    0.117364
     9  O   -0.510688
    10  O   -0.340852
    11  H   -0.066706
    12  H    0.319957
    13  C   -0.211070
    14  H    0.128611
    15  H    0.117516
    16  H    0.118476
 Sum of Mulliken atomic charges =   0.00000

 Dipole moment (field-independent basis, Debye):
    X=             -0.2816    Y=             -0.4895    Z=             -0.9661  Tot=              1.1191
 Quadrupole moment (field-independent basis, Debye-Ang):
   XX=            -41.2600   YY=            -49.1024   ZZ=            -42.8664
   XY=             -1.6256   XZ=             -0.1925   YZ=             -1.7486

 Normal termination of Gaussian 09 at Fri Aug 10 03:49:44 2018.
