 Gaussian 09, Revision C.01,
 Gaussian 09:  EM64L-G09RevC.01 23-Sep-2011

 --------------------------------------
 #SP PBE1PBE/Def2TZVP geom=connectivity
 --------------------------------------

 99/5=1,9=1/99;
 --------------
 Structure: 125
 --------------
 Charge =  0 Multiplicity = 1

                         Standard orientation:
 ---------------------------------------------------------------------
 Center     Atomic      Atomic             Coordinates (Angstroms)
 Number     Number       Type             X           Y           Z
 ---------------------------------------------------------------------
      1          1           0       -3.228620   -1.214697   -0.434536
      2          6           0       -2.234109   -0.799097   -0.615848
      3          6           0       -1.620553   -0.231246    0.663284
      4          1           0       -2.347530   -0.029882   -1.385757
      5          1           0       -1.613456   -1.595854   -1.033194
      6          1           0       -2.257637    0.559857    1.073994
      7         14           0        0.091085    0.467491    0.452833
      8          1           0       -1.565463   -1.008107    1.433297
      9          8           0        0.146724    1.631217   -0.571260
     10          8           0        1.035144   -0.795587   -0.007006
     11          1           0        0.629986    1.077175    1.695666
     12          1           0       -0.207349    1.468268   -1.446130
     13          6           0        2.428120   -0.704880   -0.194203
     14          1           0        2.809898   -1.700880   -0.425338
     15          1           0        2.931182   -0.341285    0.709947
     16          1           0        2.678104   -0.033174   -1.020889
 ---------------------------------------------------------------------

 SCF Done:  E(RPBE1PBE) =  -560.054788694     A.U. after   12 cycles

 The electronic state is 1-A.
 Alpha  occ. eigenvalues --  -66.24079 -19.20766 -19.19554 -10.26287 -10.21644
 Alpha  occ. eigenvalues --  -10.20454  -5.32061  -3.65599  -3.65461  -3.65309
 Alpha  occ. eigenvalues --   -1.05819  -1.03003  -0.78002  -0.70305  -0.63897
 Alpha  occ. eigenvalues --   -0.58172  -0.51373  -0.46702  -0.46503  -0.46007
 Alpha  occ. eigenvalues --   -0.43444  -0.40668  -0.40335  -0.37772  -0.36965
 Alpha  occ. eigenvalues --   -0.35880  -0.31689  -0.30195  -0.29300
 Alpha virt. eigenvalues --    0.02222   0.05846   0.06239   0.08186   0.09044
 Alpha virt. eigenvalues --    0.10326   0.11080   0.11708   0.12412   0.13536
 Alpha virt. eigenvalues --    0.14568   0.15337   0.16420   0.16970   0.19484

 Mulliken atomic charges:
              1
     1  H    0.130330
     2  C   -0.395632
     3  C   -0.314802
     4  H    0.102392
     5  H    0.143241
     6  H    0.119136
     7  Si   0.514617
     8  H    0.116231
     9  O   -0.470651
    10  O   -0.344880
    11  H   -0.073796
    12  H    0.323129
    13  C   -0.210807
    14  H    0.128328
    15  H    0.117472
    16  H    0.115694
 Sum of Mulliken atomic charges =   0.00000

 Dipole moment (field-independent basis, Debye):
    X=             -0.2720    Y=             -0.3081    Z=             -1.1360  Tot=              1.2081
 Quadrupole moment (field-independent basis, Debye-Ang):
   XX=            -41.4399   YY=            -48.7341   ZZ=            -42.8718
   XY=             -1.5695   XZ=             -0.1775   YZ=             -1.7522

 Normal termination of Gaussian 09 at Fri Aug 10 00:16:05 2018.
