 Gaussian 09, Revision C.01,
 Gaussian 09:  EM64L-G09RevC.01 23-Sep-2011

 --------------------------------------
 #SP PBE1PBE/Def2TZVP geom=connectivity
 --------------------------------------

 99/5=1,9=1/99;
 --------------
 Structure: 127
 --------------
 Charge =  0 Multiplicity = 1

                         Standard orientation:
 ---------------------------------------------------------------------
 Center     Atomic      Atomic             Coordinates (Angstroms)
 Number     Number       Type             X           Y           Z
 ---------------------------------------------------------------------
      1          1           0       -3.228778   -1.213786   -0.437230
      2          6           0       -2.234221   -0.797832   -0.617471
      3          6           0       -1.620665   -0.233207    0.663089
      4          1           0       -2.347538   -0.026703   -1.385478
      5          1           0       -1.613626   -1.593611   -1.036763
      6          1           0       -2.257692    0.556936    1.075730
      7         14           0        0.091047    0.465888    0.454439
      8          1           0       -1.565680   -1.011977    1.431178
      9          8           0        0.147289    1.635081   -0.569621
     10          8           0        1.035007   -0.796136   -0.008486
     11          1           0        0.629953    1.072443    1.698800
     12          1           0       -0.207172    1.475224   -1.445104
     13          6           0        2.428000   -0.705096   -0.195400
     14          1           0        2.809693   -1.700557   -0.428985
     15          1           0        2.931058   -0.343788    0.709668
     16          1           0        2.678080   -0.031369   -1.020411
 ---------------------------------------------------------------------

 SCF Done:  E(RPBE1PBE) =  -560.055381067     A.U. after   12 cycles

 The electronic state is 1-A.
 Alpha  occ. eigenvalues --  -66.24138 -19.20747 -19.19571 -10.26292 -10.21647
 Alpha  occ. eigenvalues --  -10.20471  -5.32102  -3.65639  -3.65504  -3.65352
 Alpha  occ. eigenvalues --   -1.05723  -1.02997  -0.78010  -0.70312  -0.63902
 Alpha  occ. eigenvalues --   -0.58106  -0.51366  -0.46704  -0.46504  -0.46004
 Alpha  occ. eigenvalues --   -0.43447  -0.40671  -0.40283  -0.37709  -0.36976
 Alpha  occ. eigenvalues --   -0.35882  -0.31697  -0.30204  -0.29317
 Alpha virt. eigenvalues --    0.02226   0.05835   0.06231   0.08180   0.09041
 Alpha virt. eigenvalues --    0.10321   0.11071   0.11698   0.12408   0.13535
 Alpha virt. eigenvalues --    0.14548   0.15333   0.16405   0.16952   0.19476

 Mulliken atomic charges:
              1
     1  H    0.130321
     2  C   -0.395495
     3  C   -0.314402
     4  H    0.102495
     5  H    0.143209
     6  H    0.119221
     7  Si   0.515861
     8  H    0.116305
     9  O   -0.473398
    10  O   -0.344610
    11  H   -0.073344
    12  H    0.322982
    13  C   -0.210804
    14  H    0.128337
    15  H    0.117462
    16  H    0.115861
 Sum of Mulliken atomic charges =   0.00000

 Dipole moment (field-independent basis, Debye):
    X=             -0.2738    Y=             -0.3168    Z=             -1.1256  Tot=              1.2010
 Quadrupole moment (field-independent basis, Debye-Ang):
   XX=            -41.4306   YY=            -48.7509   ZZ=            -42.8705
   XY=             -1.5746   XZ=             -0.1774   YZ=             -1.7554

 Normal termination of Gaussian 09 at Fri Aug 10 00:29:13 2018.
