 Gaussian 09, Revision C.01,
 Gaussian 09:  EM64L-G09RevC.01 23-Sep-2011

 --------------------------------------
 #SP PBE1PBE/Def2TZVP geom=connectivity
 --------------------------------------

 99/5=1,9=1/99;
 --------------
 Structure: 166
 --------------
 Charge =  0 Multiplicity = 1

                         Standard orientation:
 ---------------------------------------------------------------------
 Center     Atomic      Atomic             Coordinates (Angstroms)
 Number     Number       Type             X           Y           Z
 ---------------------------------------------------------------------
      1          1           0       -3.230404   -1.199171   -0.484259
      2          6           0       -2.235255   -0.776889   -0.645525
      3          6           0       -1.621826   -0.269709    0.658913
      4          1           0       -2.347209    0.027320   -1.379029
      5          1           0       -1.615328   -1.554246   -1.098974
      6          1           0       -2.258187    0.502328    1.105462
      7         14           0        0.090823    0.435836    0.482087
      8          1           0       -1.568213   -1.081487    1.392132
      9          8           0        0.152242    1.710517   -0.538663
     10          8           0        1.033600   -0.805786   -0.035226
     11          1           0        0.629674    0.986583    1.752158
     12          1           0       -0.202373    1.588351   -1.420208
     13          6           0        2.426811   -0.708286   -0.217189
     14          1           0        2.807492   -1.692994   -0.494003
     15          1           0        2.929736   -0.387623    0.703138
     16          1           0        2.678177    0.000685   -1.011711
 ---------------------------------------------------------------------

 SCF Done:  E(RPBE1PBE) =  -560.061195313     A.U. after   12 cycles

 The electronic state is 1-A.
 Alpha  occ. eigenvalues --  -66.25200 -19.20334 -19.19948 -10.26425 -10.21721
 Alpha  occ. eigenvalues --  -10.20806  -5.32900  -3.66425  -3.66314  -3.66169
 Alpha  occ. eigenvalues --   -1.04522  -1.02498  -0.78180  -0.70488  -0.64031
 Alpha  occ. eigenvalues --   -0.56893  -0.51224  -0.46819  -0.46602  -0.45983
 Alpha  occ. eigenvalues --   -0.43547  -0.40897  -0.39263  -0.37206  -0.36689
 Alpha  occ. eigenvalues --   -0.35754  -0.31863  -0.30411  -0.29634
 Alpha virt. eigenvalues --    0.02292   0.05598   0.06072   0.08041   0.08986
 Alpha virt. eigenvalues --    0.10199   0.10892   0.11463   0.12323   0.13504
 Alpha virt. eigenvalues --    0.14130   0.15255   0.16140   0.16610   0.19324

 Mulliken atomic charges:
              1
     1  H    0.130238
     2  C   -0.393802
     3  C   -0.306979
     4  H    0.104961
     5  H    0.142615
     6  H    0.120976
     7  Si   0.535612
     8  H    0.117641
     9  O   -0.519652
    10  O   -0.339977
    11  H   -0.065055
    12  H    0.319209
    13  C   -0.211176
    14  H    0.128691
    15  H    0.117543
    16  H    0.119155
 Sum of Mulliken atomic charges =   0.00000

 Dipole moment (field-independent basis, Debye):
    X=             -0.2833    Y=             -0.5373    Z=             -0.9269  Tot=              1.1082
 Quadrupole moment (field-independent basis, Debye-Ang):
   XX=            -41.2147   YY=            -49.1985   ZZ=            -42.8638
   XY=             -1.6397   XZ=             -0.1971   YZ=             -1.7508

 Normal termination of Gaussian 09 at Fri Aug 10 04:41:09 2018.
