 Gaussian 09, Revision C.01,
 Gaussian 09:  EM64L-G09RevC.01 23-Sep-2011

 --------------------------------------
 #SP PBE1PBE/Def2TZVP geom=connectivity
 --------------------------------------

 99/5=1,9=1/99;
 --------------
 Structure: 135
 --------------
 Charge =  0 Multiplicity = 1

                         Standard orientation:
 ---------------------------------------------------------------------
 Center     Atomic      Atomic             Coordinates (Angstroms)
 Number     Number       Type             X           Y           Z
 ---------------------------------------------------------------------
      1          1           0       -3.229099   -1.210926   -0.447106
      2          6           0       -2.234424   -0.793570   -0.623412
      3          6           0       -1.620894   -0.240833    0.662336
      4          1           0       -2.347468   -0.015417   -1.384341
      5          1           0       -1.613960   -1.585622   -1.049896
      6          1           0       -2.257789    0.545647    1.082117
      7         14           0        0.091005    0.459745    0.460301
      8          1           0       -1.566183   -1.026615    1.423272
      9          8           0        0.148203    1.650868   -0.563374
     10          8           0        1.034730   -0.798208   -0.014043
     11          1           0        0.629899    1.054758    1.710227
     12          1           0       -0.205779    1.498220   -1.440137
     13          6           0        2.427767   -0.705784   -0.199949
     14          1           0        2.809259   -1.699153   -0.442590
     15          1           0        2.930797   -0.352892    0.708450
     16          1           0        2.678104   -0.024591   -1.018727
 ---------------------------------------------------------------------

 SCF Done:  E(RPBE1PBE) =  -560.057397828     A.U. after   12 cycles

 The electronic state is 1-A.
 Alpha  occ. eigenvalues --  -66.24368 -19.20669 -19.19651 -10.26321 -10.21662
 Alpha  occ. eigenvalues --  -10.20541  -5.32270  -3.65803  -3.65675  -3.65526
 Alpha  occ. eigenvalues --   -1.05388  -1.02974  -0.78045  -0.70349  -0.63927
 Alpha  occ. eigenvalues --   -0.57841  -0.51350  -0.46723  -0.46522  -0.45997
 Alpha  occ. eigenvalues --   -0.43466  -0.40700  -0.40085  -0.37476  -0.37016
 Alpha  occ. eigenvalues --   -0.35885  -0.31739  -0.30250  -0.29385
 Alpha virt. eigenvalues --    0.02246   0.05791   0.06199   0.08151   0.09031
 Alpha virt. eigenvalues --    0.10296   0.11037   0.11654   0.12391   0.13531
 Alpha virt. eigenvalues --    0.14463   0.15318   0.16352   0.16880   0.19446

 Mulliken atomic charges:
              1
     1  H    0.130301
     2  C   -0.395164
     3  C   -0.312751
     4  H    0.103026
     5  H    0.143079
     6  H    0.119591
     7  Si   0.520274
     8  H    0.116577
     9  O   -0.483458
    10  O   -0.343560
    11  H   -0.071589
    12  H    0.322096
    13  C   -0.210859
    14  H    0.128413
    15  H    0.117484
    16  H    0.116540
 Sum of Mulliken atomic charges =   0.00000

 Dipole moment (field-independent basis, Debye):
    X=             -0.2746    Y=             -0.3616    Z=             -1.0831  Tot=              1.1745
 Quadrupole moment (field-independent basis, Debye-Ang):
   XX=            -41.3856   YY=            -48.8434   ZZ=            -42.8710
   XY=             -1.5862   XZ=             -0.1829   YZ=             -1.7504

 Normal termination of Gaussian 09 at Fri Aug 10 01:21:06 2018.
