 Gaussian 09, Revision C.01,
 Gaussian 09:  EM64L-G09RevC.01 23-Sep-2011

 --------------------------------------
 #SP PBE1PBE/Def2TZVP geom=connectivity
 --------------------------------------

 99/5=1,9=1/99;
 --------------
 Structure: 180
 --------------
 Charge =  0 Multiplicity = 1

                         Standard orientation:
 ---------------------------------------------------------------------
 Center     Atomic      Atomic             Coordinates (Angstroms)
 Number     Number       Type             X           Y           Z
 ---------------------------------------------------------------------
      1          1           0       -3.230722   -1.194368   -0.499748
      2          6           0       -2.235422   -0.770062   -0.654638
      3          6           0       -1.622061   -0.282257    0.657200
      4          1           0       -2.347017    0.044856   -1.376282
      5          1           0       -1.615648   -1.540865   -1.119344
      6          1           0       -2.258270    0.483332    1.114925
      7         14           0        0.090824    0.425297    0.491024
      8          1           0       -1.568810   -1.104723    1.378438
      9          8           0        0.152994    1.736633   -0.527403
     10          8           0        1.033323   -0.808880   -0.044297
     11          1           0        0.629625    0.957189    1.769127
     12          1           0       -0.200671    1.627719   -1.411824
     13          6           0        2.426593   -0.709135   -0.224584
     14          1           0        2.807030   -1.689788   -0.515754
     15          1           0        2.929459   -0.402160    0.700431
     16          1           0        2.678299    0.011343   -1.008577
 ---------------------------------------------------------------------

 SCF Done:  E(RPBE1PBE) =  -560.061223670     A.U. after   12 cycles

 The electronic state is 1-A.
 Alpha  occ. eigenvalues --  -66.25539 -19.20175 -19.20081 -10.26474 -10.21745
 Alpha  occ. eigenvalues --  -10.20917  -5.33167  -3.66692  -3.66585  -3.66440
 Alpha  occ. eigenvalues --   -1.04389  -1.02065  -0.78236  -0.70552  -0.64079
 Alpha  occ. eigenvalues --   -0.56521  -0.51135  -0.46871  -0.46644  -0.45981
 Alpha  occ. eigenvalues --   -0.43584  -0.40990  -0.38921  -0.37243  -0.36523
 Alpha  occ. eigenvalues --   -0.35564  -0.31899  -0.30475  -0.29734
 Alpha virt. eigenvalues --    0.02295   0.05503   0.06013   0.07993   0.08961
 Alpha virt. eigenvalues --    0.10151   0.10822   0.11369   0.12291   0.13485
 Alpha virt. eigenvalues --    0.13985   0.15221   0.16042   0.16497   0.19269

 Mulliken atomic charges:
              1
     1  H    0.130207
     2  C   -0.393254
     3  C   -0.304606
     4  H    0.105819
     5  H    0.142390
     6  H    0.121555
     7  Si   0.541437
     8  H    0.118069
     9  O   -0.534236
    10  O   -0.338581
    11  H   -0.062296
    12  H    0.318193
    13  C   -0.211394
    14  H    0.128832
    15  H    0.117597
    16  H    0.120268
 Sum of Mulliken atomic charges =   0.00000

 Dipole moment (field-independent basis, Debye):
    X=             -0.2830    Y=             -0.6186    Z=             -0.8642  Tot=              1.0998
 Quadrupole moment (field-independent basis, Debye-Ang):
   XX=            -41.1405   YY=            -49.3631   ZZ=            -42.8528
   XY=             -1.6600   XZ=             -0.2056   YZ=             -1.7598

 Normal termination of Gaussian 09 at Thu Aug  9 23:47:19 2018.
