 Gaussian 09, Revision C.01,
 Gaussian 09:  EM64L-G09RevC.01 23-Sep-2011

 --------------------------------------
 #SP PBE1PBE/Def2TZVP geom=connectivity
 --------------------------------------

 99/5=1,9=1/99;
 --------------
 Structure: 130
 --------------
 Charge =  0 Multiplicity = 1

                         Standard orientation:
 ---------------------------------------------------------------------
 Center     Atomic      Atomic             Coordinates (Angstroms)
 Number     Number       Type             X           Y           Z
 ---------------------------------------------------------------------
      1          1           0       -3.228994   -1.212460   -0.441270
      2          6           0       -2.234368   -0.795974   -0.619900
      3          6           0       -1.620821   -0.236186    0.662785
      4          1           0       -2.347529   -0.021986   -1.385049
      5          1           0       -1.613852   -1.590276   -1.042101
      6          1           0       -2.257769    0.552506    1.078313
      7         14           0        0.090999    0.463446    0.456844
      8          1           0       -1.565992   -1.017808    1.427985
      9          8           0        0.147940    1.641296   -0.567230
     10          8           0        1.034819   -0.796980   -0.010698
     11          1           0        0.629905    1.065307    1.703482
     12          1           0       -0.206075    1.483843   -1.443130
     13          6           0        2.427837   -0.705436   -0.197181
     14          1           0        2.809412   -1.700075   -0.434431
     15          1           0        2.930884   -0.347556    0.709255
     16          1           0        2.678063   -0.028687   -1.019669
 ---------------------------------------------------------------------

 SCF Done:  E(RPBE1PBE) =  -560.056244831     A.U. after   12 cycles

 The electronic state is 1-A.
 Alpha  occ. eigenvalues --  -66.24231 -19.20716 -19.19602 -10.26303 -10.21654
 Alpha  occ. eigenvalues --  -10.20500  -5.32170  -3.65705  -3.65573  -3.65422
 Alpha  occ. eigenvalues --   -1.05588  -1.02991  -0.78025  -0.70327  -0.63912
 Alpha  occ. eigenvalues --   -0.57999  -0.51361  -0.46711  -0.46511  -0.46002
 Alpha  occ. eigenvalues --   -0.43455  -0.40680  -0.40208  -0.37614  -0.36994
 Alpha  occ. eigenvalues --   -0.35885  -0.31714  -0.30223  -0.29345
 Alpha virt. eigenvalues --    0.02235   0.05817   0.06218   0.08168   0.09037
 Alpha virt. eigenvalues --    0.10311   0.11057   0.11680   0.12402   0.13533
 Alpha virt. eigenvalues --    0.14514   0.15327   0.16383   0.16923   0.19464

 Mulliken atomic charges:
              1
     1  H    0.130316
     2  C   -0.395388
     3  C   -0.313718
     4  H    0.102729
     5  H    0.143161
     6  H    0.119372
     7  Si   0.517591
     8  H    0.116421
     9  O   -0.477409
    10  O   -0.344188
    11  H   -0.072628
    12  H    0.322595
    13  C   -0.210818
    14  H    0.128367
    15  H    0.117468
    16  H    0.116129
 Sum of Mulliken atomic charges =   0.00000

 Dipole moment (field-independent basis, Debye):
    X=             -0.2742    Y=             -0.3353    Z=             -1.1079  Tot=              1.1896
 Quadrupole moment (field-independent basis, Debye-Ang):
   XX=            -41.4127   YY=            -48.7895   ZZ=            -42.8709
   XY=             -1.5786   XZ=             -0.1806   YZ=             -1.7509

 Normal termination of Gaussian 09 at Fri Aug 10 00:48:40 2018.
