 Gaussian 09, Revision C.01,
 Gaussian 09:  EM64L-G09RevC.01 23-Sep-2011

 --------------------------------------
 #SP PBE1PBE/Def2TZVP geom=connectivity
 --------------------------------------

 99/5=1,9=1/99;
 --------------
 Structure: 122
 --------------
 Charge =  0 Multiplicity = 1

                         Standard orientation:
 ---------------------------------------------------------------------
 Center     Atomic      Atomic             Coordinates (Angstroms)
 Number     Number       Type             X           Y           Z
 ---------------------------------------------------------------------
      1          1           0       -3.228598   -1.215641   -0.431119
      2          6           0       -2.234107   -0.800593   -0.613803
      3          6           0       -1.620526   -0.228604    0.663472
      4          1           0       -2.347580   -0.033867   -1.386182
      5          1           0       -1.613442   -1.598670   -1.028602
      6          1           0       -2.257622    0.563796    1.071653
      7         14           0        0.091081    0.469508    0.450712
      8          1           0       -1.565383   -1.002979    1.435982
      9          8           0        0.146677    1.626367   -0.573088
     10          8           0        1.035167   -0.795014   -0.005088
     11          1           0        0.630005    1.083210    1.691555
     12          1           0       -0.207493    1.460337   -1.448382
     13          6           0        2.428134   -0.704864   -0.192625
     14          1           0        2.809936   -1.701591   -0.420564
     15          1           0        2.931215   -0.338341    0.710331
     16          1           0        2.678066   -0.035816   -1.021479
 ---------------------------------------------------------------------

 SCF Done:  E(RPBE1PBE) =  -560.053974308     A.U. after   12 cycles

 The electronic state is 1-A.
 Alpha  occ. eigenvalues --  -66.24001 -19.20799 -19.19530 -10.26279 -10.21640
 Alpha  occ. eigenvalues --  -10.20431  -5.32004  -3.65544  -3.65403  -3.65250
 Alpha  occ. eigenvalues --   -1.05924  -1.03002  -0.77991  -0.70293  -0.63888
 Alpha  occ. eigenvalues --   -0.58241  -0.51377  -0.46697  -0.46498  -0.46010
 Alpha  occ. eigenvalues --   -0.43439  -0.40670  -0.40389  -0.37850  -0.36948
 Alpha  occ. eigenvalues --   -0.35877  -0.31675  -0.30181  -0.29277
 Alpha virt. eigenvalues --    0.02204   0.05860   0.06248   0.08196   0.09045
 Alpha virt. eigenvalues --    0.10332   0.11090   0.11722   0.12417   0.13536
 Alpha virt. eigenvalues --    0.14598   0.15340   0.16436   0.16988   0.19493

 Mulliken atomic charges:
              1
     1  H    0.130340
     2  C   -0.395763
     3  C   -0.315339
     4  H    0.102222
     5  H    0.143285
     6  H    0.119025
     7  Si   0.513048
     8  H    0.116151
     9  O   -0.467379
    10  O   -0.345242
    11  H   -0.074412
    12  H    0.323603
    13  C   -0.210788
    14  H    0.128308
    15  H    0.117479
    16  H    0.115464
 Sum of Mulliken atomic charges =   0.00000

 Dipole moment (field-independent basis, Debye):
    X=             -0.2717    Y=             -0.2953    Z=             -1.1519  Tot=              1.2198
 Quadrupole moment (field-independent basis, Debye-Ang):
   XX=            -41.4550   YY=            -48.7095   ZZ=            -42.8696
   XY=             -1.5663   XZ=             -0.1768   YZ=             -1.7551

 Normal termination of Gaussian 09 at Thu Aug  9 23:56:35 2018.
