 Gaussian 09, Revision C.01,
 Gaussian 09:  EM64L-G09RevC.01 23-Sep-2011

 --------------------------------------
 #SP PBE1PBE/Def2TZVP geom=connectivity
 --------------------------------------

 99/5=1,9=1/99;
 --------------
 Structure: 172
 --------------
 Charge =  0 Multiplicity = 1

                         Standard orientation:
 ---------------------------------------------------------------------
 Center     Atomic      Atomic             Coordinates (Angstroms)
 Number     Number       Type             X           Y           Z
 ---------------------------------------------------------------------
      1          1           0       -3.230673   -1.196929   -0.490849
      2          6           0       -2.235430   -0.773848   -0.649412
      3          6           0       -1.622015   -0.274873    0.658193
      4          1           0       -2.347166    0.034909   -1.377931
      5          1           0       -1.615612   -1.548501   -1.107614
      6          1           0       -2.258267    0.494505    1.109461
      7         14           0        0.090784    0.431424    0.485885
      8          1           0       -1.568621   -1.091187    1.386376
      9          8           0        0.153066    1.721440   -0.533933
     10          8           0        1.033368   -0.807152   -0.039027
     11          1           0        0.629631    0.974191    1.759388
     12          1           0       -0.201568    1.604606   -1.417225
     13          6           0        2.426613   -0.708794   -0.220264
     14          1           0        2.807129   -1.691843   -0.503139
     15          1           0        2.929521   -0.393934    0.702073
     16          1           0        2.678182    0.005035   -1.010360
 ---------------------------------------------------------------------

 SCF Done:  E(RPBE1PBE) =  -560.061312361     A.U. after   12 cycles

 The electronic state is 1-A.
 Alpha  occ. eigenvalues --  -66.25343 -19.20274 -19.20002 -10.26445 -10.21731
 Alpha  occ. eigenvalues --  -10.20854  -5.33011  -3.66537  -3.66427  -3.66282
 Alpha  occ. eigenvalues --   -1.04446  -1.02319  -0.78204  -0.70514  -0.64051
 Alpha  occ. eigenvalues --   -0.56722  -0.51186  -0.46840  -0.46618  -0.45983
 Alpha  occ. eigenvalues --   -0.43562  -0.40935  -0.39117  -0.37223  -0.36606
 Alpha  occ. eigenvalues --   -0.35685  -0.31878  -0.30438  -0.29677
 Alpha virt. eigenvalues --    0.02288   0.05558   0.06047   0.08021   0.08973
 Alpha virt. eigenvalues --    0.10179   0.10863   0.11424   0.12310   0.13496
 Alpha virt. eigenvalues --    0.14069   0.15241   0.16096   0.16561   0.19300

 Mulliken atomic charges:
              1
     1  H    0.130229
     2  C   -0.393574
     3  C   -0.305970
     4  H    0.105310
     5  H    0.142531
     6  H    0.121224
     7  Si   0.538065
     8  H    0.117833
     9  O   -0.525953
    10  O   -0.339387
    11  H   -0.063893
    12  H    0.318911
    13  C   -0.211248
    14  H    0.128744
    15  H    0.117559
    16  H    0.119620
 Sum of Mulliken atomic charges =   0.00000

 Dipole moment (field-independent basis, Debye):
    X=             -0.2846    Y=             -0.5711    Z=             -0.9008  Tot=              1.1039
 Quadrupole moment (field-independent basis, Debye-Ang):
   XX=            -41.1848   YY=            -49.2679   ZZ=            -42.8583
   XY=             -1.6496   XZ=             -0.2001   YZ=             -1.7546

 Normal termination of Gaussian 09 at Fri Aug 10 05:19:42 2018.
