 Gaussian 09, Revision C.01,
 Gaussian 09:  EM64L-G09RevC.01 23-Sep-2011

 --------------------------------------
 #SP PBE1PBE/Def2TZVP geom=connectivity
 --------------------------------------

 99/5=1,9=1/99;
 --------------
 Structure: 107
 --------------
 Charge =  0 Multiplicity = 1

                         Standard orientation:
 ---------------------------------------------------------------------
 Center     Atomic      Atomic             Coordinates (Angstroms)
 Number     Number       Type             X           Y           Z
 ---------------------------------------------------------------------
      1          1           0       -3.228030   -1.220765   -0.412244
      2          6           0       -2.233747   -0.808569   -0.602362
      3          6           0       -1.620126   -0.214129    0.664601
      4          1           0       -2.347696   -0.055485   -1.387979
      5          1           0       -1.612846   -1.613514   -1.003306
      6          1           0       -2.257457    0.585018    1.059031
      7         14           0        0.091152    0.480852    0.439313
      8          1           0       -1.564505   -0.974881    1.450496
      9          8           0        0.144987    1.597018   -0.584562
     10          8           0        1.035654   -0.791052    0.005444
     11          1           0        0.630090    1.116333    1.669139
     12          1           0       -0.209229    1.415864   -1.455786
     13          6           0        2.428544   -0.703628   -0.183943
     14          1           0        2.810703   -1.704028   -0.394536
     15          1           0        2.931668   -0.321200    0.712368
     16          1           0        2.678028   -0.049048   -1.024403
 ---------------------------------------------------------------------

 SCF Done:  E(RPBE1PBE) =  -560.048275279     A.U. after   12 cycles

 The electronic state is 1-A.
 Alpha  occ. eigenvalues --  -66.23554 -19.20917 -19.19387 -10.26230 -10.21615
 Alpha  occ. eigenvalues --  -10.20304  -5.31693  -3.65245  -3.65080  -3.64924
 Alpha  occ. eigenvalues --   -1.06666  -1.02984  -0.77930  -0.70228  -0.63852
 Alpha  occ. eigenvalues --   -0.58764  -0.51401  -0.46683  -0.46480  -0.46027
 Alpha  occ. eigenvalues --   -0.43414  -0.40925  -0.40476  -0.38313  -0.36858
 Alpha  occ. eigenvalues --   -0.35854  -0.31593  -0.30097  -0.29149
 Alpha virt. eigenvalues --    0.02169   0.05935   0.06310   0.08246   0.09066
 Alpha virt. eigenvalues --    0.10374   0.11148   0.11794   0.12446   0.13540
 Alpha virt. eigenvalues --    0.14748   0.15369   0.16535   0.17119   0.19547

 Mulliken atomic charges:
              1
     1  H    0.130391
     2  C   -0.396476
     3  C   -0.318566
     4  H    0.101326
     5  H    0.143538
     6  H    0.118358
     7  Si   0.504116
     8  H    0.115668
     9  O   -0.447275
    10  O   -0.347388
    11  H   -0.077780
    12  H    0.324979
    13  C   -0.210759
    14  H    0.128187
    15  H    0.117463
    16  H    0.114218
 Sum of Mulliken atomic charges =   0.00000

 Dipole moment (field-independent basis, Debye):
    X=             -0.2689    Y=             -0.2203    Z=             -1.2308  Tot=              1.2789
 Quadrupole moment (field-independent basis, Debye-Ang):
   XX=            -41.5330   YY=            -48.5525   ZZ=            -42.8713
   XY=             -1.5432   XZ=             -0.1699   YZ=             -1.7591

 Normal termination of Gaussian 09 at Thu Aug  9 23:27:53 2018.
