 Gaussian 09, Revision C.01,
 Gaussian 09:  EM64L-G09RevC.01 23-Sep-2011

 --------------------------------------
 #SP PBE1PBE/Def2TZVP geom=connectivity
 --------------------------------------

 99/5=1,9=1/99;
 --------------
 Structure: 187
 --------------
 Charge =  0 Multiplicity = 1

                         Standard orientation:
 ---------------------------------------------------------------------
 Center     Atomic      Atomic             Coordinates (Angstroms)
 Number     Number       Type             X           Y           Z
 ---------------------------------------------------------------------
      1          1           0       -3.230998   -1.191484   -0.507917
      2          6           0       -2.235591   -0.766203   -0.659410
      3          6           0       -1.622270   -0.288702    0.656233
      4          1           0       -2.346934    0.054303   -1.374733
      5          1           0       -1.615929   -1.533516   -1.130004
      6          1           0       -2.258367    0.473455    1.119805
      7         14           0        0.090784    0.419754    0.495726
      8          1           0       -1.569272   -1.116739    1.371086
      9          8           0        0.153831    1.749917   -0.521724
     10          8           0        1.033079   -0.810442   -0.049036
     11          1           0        0.629557    0.941617    1.777967
     12          1           0       -0.199688    1.648112   -1.406020
     13          6           0        2.426390   -0.709599   -0.228394
     14          1           0        2.806651   -1.688049   -0.527109
     15          1           0        2.929220   -0.409904    0.699024
     16          1           0        2.678335    0.016875   -1.006757
 ---------------------------------------------------------------------

 SCF Done:  E(RPBE1PBE) =  -560.060910379     A.U. after   12 cycles

 The electronic state is 1-A.
 Alpha  occ. eigenvalues --  -66.25714 -19.20149 -19.20076 -10.26499 -10.21759
 Alpha  occ. eigenvalues --  -10.20977  -5.33307  -3.66833  -3.66726  -3.66580
 Alpha  occ. eigenvalues --   -1.04366  -1.01829  -0.78268  -0.70585  -0.64106
 Alpha  occ. eigenvalues --   -0.56357  -0.51083  -0.46900  -0.46665  -0.45985
 Alpha  occ. eigenvalues --   -0.43606  -0.41043  -0.38757  -0.37257  -0.36476
 Alpha  occ. eigenvalues --   -0.35436  -0.31911  -0.30506  -0.29786
 Alpha virt. eigenvalues --    0.02304   0.05452   0.05983   0.07966   0.08953
 Alpha virt. eigenvalues --    0.10126   0.10781   0.11317   0.12275   0.13473
 Alpha virt. eigenvalues --    0.13910   0.15203   0.15992   0.16443   0.19240

 Mulliken atomic charges:
              1
     1  H    0.130198
     2  C   -0.392954
     3  C   -0.303461
     4  H    0.106288
     5  H    0.142286
     6  H    0.121864
     7  Si   0.544218
     8  H    0.118313
     9  O   -0.541267
    10  O   -0.337886
    11  H   -0.060869
    12  H    0.317408
    13  C   -0.211516
    14  H    0.128902
    15  H    0.117611
    16  H    0.120867
 Sum of Mulliken atomic charges =   0.00000

 Dipole moment (field-independent basis, Debye):
    X=             -0.2847    Y=             -0.6619    Z=             -0.8293  Tot=              1.0986
 Quadrupole moment (field-independent basis, Debye-Ang):
   XX=            -41.0997   YY=            -49.4478   ZZ=            -42.8510
   XY=             -1.6722   XZ=             -0.2094   YZ=             -1.7614

 Normal termination of Gaussian 09 at Fri Aug 10 00:32:09 2018.
