 Gaussian 09, Revision C.01,
 Gaussian 09:  EM64L-G09RevC.01 23-Sep-2011

 --------------------------------------
 #SP PBE1PBE/Def2TZVP geom=connectivity
 --------------------------------------

 99/5=1,9=1/99;
 --------------
 Structure: 120
 --------------
 Charge =  0 Multiplicity = 1

                         Standard orientation:
 ---------------------------------------------------------------------
 Center     Atomic      Atomic             Coordinates (Angstroms)
 Number     Number       Type             X           Y           Z
 ---------------------------------------------------------------------
      1          1           0       -3.228503   -1.216210   -0.428660
      2          6           0       -2.234045   -0.801504   -0.612297
      3          6           0       -1.620469   -0.226622    0.663681
      4          1           0       -2.347591   -0.036513   -1.386383
      5          1           0       -1.613336   -1.600463   -1.025329
      6          1           0       -2.257609    0.566644    1.070109
      7         14           0        0.091084    0.471130    0.449318
      8          1           0       -1.565254   -0.999266    1.437918
      9          8           0        0.146462    1.621641   -0.574947
     10          8           0        1.035244   -0.794342   -0.003682
     11          1           0        0.629999    1.087639    1.688773
     12          1           0       -0.208057    1.454777   -1.449098
     13          6           0        2.428200   -0.704516   -0.191456
     14          1           0        2.810065   -1.701724   -0.417178
     15          1           0        2.931280   -0.335943    0.710667
     16          1           0        2.678065   -0.037304   -1.021809
 ---------------------------------------------------------------------

 SCF Done:  E(RPBE1PBE) =  -560.053268569     A.U. after   12 cycles

 The electronic state is 1-A.
 Alpha  occ. eigenvalues --  -66.23938 -19.20809 -19.19505 -10.26270 -10.21636
 Alpha  occ. eigenvalues --  -10.20412  -5.31960  -3.65501  -3.65356  -3.65204
 Alpha  occ. eigenvalues --   -1.06035  -1.03001  -0.77981  -0.70281  -0.63883
 Alpha  occ. eigenvalues --   -0.58335  -0.51379  -0.46692  -0.46493  -0.46012
 Alpha  occ. eigenvalues --   -0.43433  -0.40686  -0.40419  -0.37917  -0.36937
 Alpha  occ. eigenvalues --   -0.35875  -0.31661  -0.30165  -0.29259
 Alpha virt. eigenvalues --    0.02207   0.05871   0.06258   0.08203   0.09049
 Alpha virt. eigenvalues --    0.10341   0.11099   0.11733   0.12422   0.13537
 Alpha virt. eigenvalues --    0.14619   0.15346   0.16450   0.17012   0.19501

 Mulliken atomic charges:
              1
     1  H    0.130343
     2  C   -0.395820
     3  C   -0.315829
     4  H    0.102069
     5  H    0.143322
     6  H    0.118912
     7  Si   0.511894
     8  H    0.116076
     9  O   -0.464505
    10  O   -0.345545
    11  H   -0.074857
    12  H    0.323701
    13  C   -0.210775
    14  H    0.128279
    15  H    0.117453
    16  H    0.115283
 Sum of Mulliken atomic charges =   0.00000

 Dipole moment (field-independent basis, Debye):
    X=             -0.2723    Y=             -0.2811    Z=             -1.1619  Tot=              1.2260
 Quadrupole moment (field-independent basis, Debye-Ang):
   XX=            -41.4676   YY=            -48.6777   ZZ=            -42.8703
   XY=             -1.5635   XZ=             -0.1739   YZ=             -1.7571

 Normal termination of Gaussian 09 at Thu Aug  9 23:43:38 2018.
