 Gaussian 09, Revision C.01,
 Gaussian 09:  EM64L-G09RevC.01 23-Sep-2011

 --------------------------------------
 #SP PBE1PBE/Def2TZVP geom=connectivity
 --------------------------------------

 99/5=1,9=1/99;
 --------------
 Structure: 140
 --------------
 Charge =  0 Multiplicity = 1

                         Standard orientation:
 ---------------------------------------------------------------------
 Center     Atomic      Atomic             Coordinates (Angstroms)
 Number     Number       Type             X           Y           Z
 ---------------------------------------------------------------------
      1          1           0       -3.229204   -1.209358   -0.452922
      2          6           0       -2.234480   -0.791143   -0.626899
      3          6           0       -1.620964   -0.245482    0.661875
      4          1           0       -2.347409   -0.008843   -1.383581
      5          1           0       -1.614070   -1.580919   -1.057661
      6          1           0       -2.257806    0.538760    1.085903
      7         14           0        0.091012    0.456022    0.463751
      8          1           0       -1.566370   -1.035405    1.418519
      9          8           0        0.148467    1.660453   -0.559404
     10          8           0        1.034641   -0.799419   -0.017393
     11          1           0        0.629898    1.044161    1.716930
     12          1           0       -0.205555    1.512388   -1.437975
     13          6           0        2.427697   -0.706117   -0.202719
     14          1           0        2.809106   -1.698186   -0.450751
     15          1           0        2.930714   -0.358231    0.707615
     16          1           0        2.678143   -0.020496   -1.017759
 ---------------------------------------------------------------------

 SCF Done:  E(RPBE1PBE) =  -560.058386021     A.U. after   12 cycles

 The electronic state is 1-A.
 Alpha  occ. eigenvalues --  -66.24502 -19.20628 -19.19699 -10.26337 -10.21670
 Alpha  occ. eigenvalues --  -10.20581  -5.32369  -3.65899  -3.65776  -3.65627
 Alpha  occ. eigenvalues --   -1.05189  -1.02938  -0.78065  -0.70371  -0.63940
 Alpha  occ. eigenvalues --   -0.57669  -0.51334  -0.46736  -0.46533  -0.45991
 Alpha  occ. eigenvalues --   -0.43477  -0.40724  -0.39954  -0.37344  -0.37033
 Alpha  occ. eigenvalues --   -0.35881  -0.31762  -0.30277  -0.29424
 Alpha virt. eigenvalues --    0.02247   0.05762   0.06178   0.08135   0.09021
 Alpha virt. eigenvalues --    0.10281   0.11017   0.11626   0.12380   0.13527
 Alpha virt. eigenvalues --    0.14411   0.15307   0.16320   0.16835   0.19427

 Mulliken atomic charges:
              1
     1  H    0.130287
     2  C   -0.394958
     3  C   -0.311772
     4  H    0.103308
     5  H    0.142999
     6  H    0.119803
     7  Si   0.522886
     8  H    0.116726
     9  O   -0.489622
    10  O   -0.342950
    11  H   -0.070541
    12  H    0.321831
    13  C   -0.210900
    14  H    0.128458
    15  H    0.117501
    16  H    0.116943
 Sum of Mulliken atomic charges =   0.00000

 Dipole moment (field-independent basis, Debye):
    X=             -0.2749    Y=             -0.3883    Z=             -1.0597  Tot=              1.1616
 Quadrupole moment (field-independent basis, Debye-Ang):
   XX=            -41.3601   YY=            -48.8997   ZZ=            -42.8675
   XY=             -1.5937   XZ=             -0.1849   YZ=             -1.7518

 Normal termination of Gaussian 09 at Fri Aug 10 01:53:34 2018.
