 Gaussian 09, Revision C.01,
 Gaussian 09:  EM64L-G09RevC.01 23-Sep-2011

 --------------------------------------
 #SP PBE1PBE/Def2TZVP geom=connectivity
 --------------------------------------

 99/5=1,9=1/99;
 --------------
 Structure: 197
 --------------
 Charge =  0 Multiplicity = 1

                         Standard orientation:
 ---------------------------------------------------------------------
 Center     Atomic      Atomic             Coordinates (Angstroms)
 Number     Number       Type             X           Y           Z
 ---------------------------------------------------------------------
      1          1           0       -3.231655   -1.187162   -0.518906
      2          6           0       -2.236034   -0.760777   -0.665823
      3          6           0       -1.622742   -0.297160    0.654790
      4          1           0       -2.346887    0.067122   -1.372653
      5          1           0       -1.616623   -1.523462   -1.144208
      6          1           0       -2.258588    0.460449    1.126096
      7         14           0        0.090651    0.412161    0.501910
      8          1           0       -1.570236   -1.132559    1.361062
      9          8           0        0.155926    1.768265   -0.513721
     10          8           0        1.032506   -0.812757   -0.055362
     11          1           0        0.629422    0.920517    1.789568
     12          1           0       -0.197477    1.675755   -1.399083
     13          6           0        2.425893   -0.710681   -0.233423
     14          1           0        2.805780   -1.686161   -0.542160
     15          1           0        2.928686   -0.420801    0.697130
     16          1           0        2.678298    0.023682   -1.004197
 ---------------------------------------------------------------------

 SCF Done:  E(RPBE1PBE) =  -560.060156121     A.U. after   12 cycles

 The electronic state is 1-A.
 Alpha  occ. eigenvalues --  -66.25944 -19.20240 -19.19950 -10.26533 -10.21779
 Alpha  occ. eigenvalues --  -10.21060  -5.33495  -3.67021  -3.66915  -3.66769
 Alpha  occ. eigenvalues --   -1.04359  -1.01461  -0.78312  -0.70630  -0.64145
 Alpha  occ. eigenvalues --   -0.56129  -0.50993  -0.46938  -0.46696  -0.45992
 Alpha  occ. eigenvalues --   -0.43636  -0.41113  -0.38554  -0.37258  -0.36439
 Alpha  occ. eigenvalues --   -0.35242  -0.31918  -0.30547  -0.29853
 Alpha virt. eigenvalues --    0.02299   0.05379   0.05939   0.07930   0.08936
 Alpha virt. eigenvalues --    0.10088   0.10719   0.11246   0.12252   0.13452
 Alpha virt. eigenvalues --    0.13815   0.15176   0.15917   0.16368   0.19200

 Mulliken atomic charges:
              1
     1  H    0.130191
     2  C   -0.392557
     3  C   -0.301932
     4  H    0.106932
     5  H    0.142152
     6  H    0.122296
     7  Si   0.547663
     8  H    0.118670
     9  O   -0.550705
    10  O   -0.336978
    11  H   -0.058972
    12  H    0.316608
    13  C   -0.211669
    14  H    0.128996
    15  H    0.117636
    16  H    0.121670
 Sum of Mulliken atomic charges =   0.00000

 Dipole moment (field-independent basis, Debye):
    X=             -0.2886    Y=             -0.7231    Z=             -0.7846  Tot=              1.1053
 Quadrupole moment (field-independent basis, Debye-Ang):
   XX=            -41.0462   YY=            -49.5688   ZZ=            -42.8448
   XY=             -1.6914   XZ=             -0.2158   YZ=             -1.7678

 Normal termination of Gaussian 09 at Fri Aug 10 01:35:59 2018.
