 Gaussian 09, Revision C.01,
 Gaussian 09:  EM64L-G09RevC.01 23-Sep-2011

 --------------------------------------
 #SP PBE1PBE/Def2TZVP geom=connectivity
 --------------------------------------

 99/5=1,9=1/99;
 --------------
 Structure: 108
 --------------
 Charge =  0 Multiplicity = 1

                         Standard orientation:
 ---------------------------------------------------------------------
 Center     Atomic      Atomic             Coordinates (Angstroms)
 Number     Number       Type             X           Y           Z
 ---------------------------------------------------------------------
      1          1           0       -3.228055   -1.220405   -0.413759
      2          6           0       -2.233760   -0.807964   -0.603285
      3          6           0       -1.620143   -0.215318    0.664520
      4          1           0       -2.347681   -0.053776   -1.387845
      5          1           0       -1.612872   -1.612359   -1.005350
      6          1           0       -2.257462    0.583288    1.060064
      7         14           0        0.091153    0.479941    0.440233
      8          1           0       -1.564550   -0.977175    1.449347
      9          8           0        0.145048    1.599425   -0.583640
     10          8           0        1.035633   -0.791374    0.004591
     11          1           0        0.630089    1.113682    1.670957
     12          1           0       -0.209161    1.419502   -1.455123
     13          6           0        2.428528   -0.703715   -0.184655
     14          1           0        2.810667   -1.703827   -0.396647
     15          1           0        2.931648   -0.322558    0.712200
     16          1           0        2.678038   -0.047961   -1.024191
 ---------------------------------------------------------------------

 SCF Done:  E(RPBE1PBE) =  -560.048810395     A.U. after   12 cycles

 The electronic state is 1-A.
 Alpha  occ. eigenvalues --  -66.23591 -19.20908 -19.19399 -10.26234 -10.21617
 Alpha  occ. eigenvalues --  -10.20314  -5.31718  -3.65270  -3.65106  -3.64951
 Alpha  occ. eigenvalues --   -1.06605  -1.02988  -0.77935  -0.70234  -0.63855
 Alpha  occ. eigenvalues --   -0.58722  -0.51400  -0.46684  -0.46482  -0.46026
 Alpha  occ. eigenvalues --   -0.43415  -0.40895  -0.40478  -0.38276  -0.36866
 Alpha  occ. eigenvalues --   -0.35856  -0.31600  -0.30105  -0.29160
 Alpha virt. eigenvalues --    0.02173   0.05929   0.06305   0.08242   0.09065
 Alpha virt. eigenvalues --    0.10370   0.11143   0.11789   0.12444   0.13540
 Alpha virt. eigenvalues --    0.14736   0.15367   0.16527   0.17108   0.19543

 Mulliken atomic charges:
              1
     1  H    0.130387
     2  C   -0.396415
     3  C   -0.318302
     4  H    0.101398
     5  H    0.143516
     6  H    0.118412
     7  Si   0.504860
     8  H    0.115705
     9  O   -0.448912
    10  O   -0.347206
    11  H   -0.077508
    12  H    0.324845
    13  C   -0.210762
    14  H    0.128197
    15  H    0.117466
    16  H    0.114320
 Sum of Mulliken atomic charges =   0.00000

 Dipole moment (field-independent basis, Debye):
    X=             -0.2690    Y=             -0.2263    Z=             -1.2243  Tot=              1.2738
 Quadrupole moment (field-independent basis, Debye-Ang):
   XX=            -41.5265   YY=            -48.5649   ZZ=            -42.8717
   XY=             -1.5450   XZ=             -0.1704   YZ=             -1.7586

 Normal termination of Gaussian 09 at Thu Aug  9 23:34:25 2018.
