 Gaussian 09, Revision C.01,
 Gaussian 09:  EM64L-G09RevC.01 23-Sep-2011

 --------------------------------------
 #SP PBE1PBE/Def2TZVP geom=connectivity
 --------------------------------------

 99/5=1,9=1/99;
 --------------
 Structure: 170
 --------------
 Charge =  0 Multiplicity = 1

                         Standard orientation:
 ---------------------------------------------------------------------
 Center     Atomic      Atomic             Coordinates (Angstroms)
 Number     Number       Type             X           Y           Z
 ---------------------------------------------------------------------
      1          1           0       -3.230519   -1.197874   -0.488461
      2          6           0       -2.235322   -0.775053   -0.648010
      3          6           0       -1.621910   -0.273082    0.658449
      4          1           0       -2.347163    0.032054   -1.378340
      5          1           0       -1.615445   -1.550673   -1.104493
      6          1           0       -2.258221    0.497246    1.108009
      7         14           0        0.090814    0.432994    0.484493
      8          1           0       -1.568410   -1.087752    1.388462
      9          8           0        0.152477    1.717647   -0.535513
     10          8           0        1.033500   -0.806666   -0.037668
     11          1           0        0.629653    0.978673    1.756754
     12          1           0       -0.201266    1.599181   -1.418673
     13          6           0        2.426730   -0.708580   -0.219176
     14          1           0        2.807332   -1.692224   -0.499854
     15          1           0        2.929639   -0.391599    0.702435
     16          1           0        2.678201    0.003497   -1.010882
 ---------------------------------------------------------------------

 SCF Done:  E(RPBE1PBE) =  -560.061288865     A.U. after   12 cycles

 The electronic state is 1-A.
 Alpha  occ. eigenvalues --  -66.25292 -19.20296 -19.19984 -10.26439 -10.21726
 Alpha  occ. eigenvalues --  -10.20835  -5.32971  -3.66497  -3.66387  -3.66242
 Alpha  occ. eigenvalues --   -1.04470  -1.02384  -0.78194  -0.70506  -0.64043
 Alpha  occ. eigenvalues --   -0.56784  -0.51201  -0.46833  -0.46613  -0.45980
 Alpha  occ. eigenvalues --   -0.43555  -0.40920  -0.39166  -0.37216  -0.36633
 Alpha  occ. eigenvalues --   -0.35711  -0.31874  -0.30428  -0.29660
 Alpha virt. eigenvalues --    0.02290   0.05572   0.06056   0.08028   0.08977
 Alpha virt. eigenvalues --    0.10187   0.10874   0.11439   0.12315   0.13499
 Alpha virt. eigenvalues --    0.14091   0.15245   0.16112   0.16578   0.19308

 Mulliken atomic charges:
              1
     1  H    0.130225
     2  C   -0.393665
     3  C   -0.306291
     4  H    0.105197
     5  H    0.142543
     6  H    0.121123
     7  Si   0.537281
     8  H    0.117748
     9  O   -0.523805
    10  O   -0.339597
    11  H   -0.064309
    12  H    0.319049
    13  C   -0.211226
    14  H    0.128730
    15  H    0.117562
    16  H    0.119434
 Sum of Mulliken atomic charges =   0.00000

 Dipole moment (field-independent basis, Debye):
    X=             -0.2821    Y=             -0.5585    Z=             -0.9114  Tot=              1.1055
 Quadrupole moment (field-independent basis, Debye-Ang):
   XX=            -41.1968   YY=            -49.2426   ZZ=            -42.8578
   XY=             -1.6441   XZ=             -0.2010   YZ=             -1.7560

 Normal termination of Gaussian 09 at Fri Aug 10 05:06:55 2018.
