 Gaussian 09, Revision C.01,
 Gaussian 09:  EM64L-G09RevC.01 23-Sep-2011

 --------------------------------------
 #SP PBE1PBE/Def2TZVP geom=connectivity
 --------------------------------------

 99/5=1,9=1/99;
 --------------
 Structure: 145
 --------------
 Charge =  0 Multiplicity = 1

                         Standard orientation:
 ---------------------------------------------------------------------
 Center     Atomic      Atomic             Coordinates (Angstroms)
 Number     Number       Type             X           Y           Z
 ---------------------------------------------------------------------
      1          1           0       -3.229558   -1.207130   -0.459402
      2          6           0       -2.234723   -0.788102   -0.630771
      3          6           0       -1.621215   -0.250312    0.661311
      4          1           0       -2.347402   -0.001256   -1.382762
      5          1           0       -1.614447   -1.575421   -1.066198
      6          1           0       -2.257924    0.531517    1.089968
      7         14           0        0.090938    0.451984    0.467563
      8          1           0       -1.566872   -1.044767    1.413213
      9          8           0        0.149692    1.670458   -0.555422
     10          8           0        1.034335   -0.800762   -0.021004
     11          1           0        0.629830    1.032482    1.724297
     12          1           0       -0.205114    1.527583   -1.433771
     13          6           0        2.427430   -0.706663   -0.205631
     14          1           0        2.808643   -1.697313   -0.459566
     15          1           0        2.930433   -0.364351    0.706822
     16          1           0        2.678110   -0.016225   -1.016523
 ---------------------------------------------------------------------

 SCF Done:  E(RPBE1PBE) =  -560.059281438     A.U. after   12 cycles

 The electronic state is 1-A.
 Alpha  occ. eigenvalues --  -66.24648 -19.20568 -19.19748 -10.26354 -10.21682
 Alpha  occ. eigenvalues --  -10.20630  -5.32477  -3.66006  -3.65887  -3.65739
 Alpha  occ. eigenvalues --   -1.05016  -1.02893  -0.78090  -0.70394  -0.63960
 Alpha  occ. eigenvalues --   -0.57512  -0.51318  -0.46750  -0.46545  -0.45991
 Alpha  occ. eigenvalues --   -0.43491  -0.40758  -0.39817  -0.37231  -0.37032
 Alpha  occ. eigenvalues --   -0.35875  -0.31785  -0.30305  -0.29469
 Alpha virt. eigenvalues --    0.02263   0.05731   0.06158   0.08115   0.09017
 Alpha virt. eigenvalues --    0.10265   0.10991   0.11596   0.12369   0.13523
 Alpha virt. eigenvalues --    0.14355   0.15299   0.16284   0.16790   0.19406

 Mulliken atomic charges:
              1
     1  H    0.130282
     2  C   -0.394703
     3  C   -0.310810
     4  H    0.103644
     5  H    0.142936
     6  H    0.120056
     7  Si   0.525557
     8  H    0.116934
     9  O   -0.495764
    10  O   -0.342316
    11  H   -0.069424
    12  H    0.321141
    13  C   -0.210936
    14  H    0.128498
    15  H    0.117499
    16  H    0.117406
 Sum of Mulliken atomic charges =   0.00000

 Dipole moment (field-independent basis, Debye):
    X=             -0.2787    Y=             -0.4177    Z=             -1.0307  Tot=              1.1465
 Quadrupole moment (field-independent basis, Debye-Ang):
   XX=            -41.3293   YY=            -48.9576   ZZ=            -42.8711
   XY=             -1.6046   XZ=             -0.1862   YZ=             -1.7479

 Normal termination of Gaussian 09 at Fri Aug 10 02:25:56 2018.
