 Gaussian 09, Revision C.01,
 Gaussian 09:  EM64L-G09RevC.01 23-Sep-2011

 --------------------------------------
 #SP PBE1PBE/Def2TZVP geom=connectivity
 --------------------------------------

 99/5=1,9=1/99;
 --------------
 Structure: 182
 --------------
 Charge =  0 Multiplicity = 1

                         Standard orientation:
 ---------------------------------------------------------------------
 Center     Atomic      Atomic             Coordinates (Angstroms)
 Number     Number       Type             X           Y           Z
 ---------------------------------------------------------------------
      1          1           0       -3.230908   -1.193354   -0.502160
      2          6           0       -2.235552   -0.768816   -0.656052
      3          6           0       -1.622195   -0.284026    0.656905
      4          1           0       -2.347019    0.047732   -1.375871
      5          1           0       -1.615845   -1.538646   -1.122458
      6          1           0       -2.258337    0.480608    1.116318
      7         14           0        0.090780    0.423702    0.492396
      8          1           0       -1.569072   -1.108114    1.376299
      9          8           0        0.153605    1.740421   -0.525754
     10          8           0        1.033160   -0.809380   -0.045650
     11          1           0        0.629583    0.952663    1.771713
     12          1           0       -0.200032    1.633532   -1.410433
     13          6           0        2.426450   -0.709391   -0.225648
     14          1           0        2.806788   -1.689433   -0.519001
     15          1           0        2.929309   -0.404550    0.700076
     16          1           0        2.678276    0.012815   -1.008012
 ---------------------------------------------------------------------

 SCF Done:  E(RPBE1PBE) =  -560.061155824     A.U. after   12 cycles

 The electronic state is 1-A.
 Alpha  occ. eigenvalues --  -66.25589 -19.20149 -19.20099 -10.26481 -10.21749
 Alpha  occ. eigenvalues --  -10.20935  -5.33207  -3.66732  -3.66625  -3.66480
 Alpha  occ. eigenvalues --   -1.04379  -1.01993  -0.78246  -0.70561  -0.64087
 Alpha  occ. eigenvalues --   -0.56469  -0.51119  -0.46879  -0.46649  -0.45982
 Alpha  occ. eigenvalues --   -0.43590  -0.41004  -0.38873  -0.37248  -0.36507
 Alpha  occ. eigenvalues --   -0.35528  -0.31902  -0.30484  -0.29749
 Alpha virt. eigenvalues --    0.02296   0.05488   0.06005   0.07985   0.08958
 Alpha virt. eigenvalues --    0.10144   0.10810   0.11354   0.12287   0.13482
 Alpha virt. eigenvalues --    0.13964   0.15216   0.16026   0.16481   0.19260

 Mulliken atomic charges:
              1
     1  H    0.130206
     2  C   -0.393170
     3  C   -0.304269
     4  H    0.105955
     5  H    0.142363
     6  H    0.121645
     7  Si   0.542230
     8  H    0.118147
     9  O   -0.536320
    10  O   -0.338384
    11  H   -0.061888
    12  H    0.318022
    13  C   -0.211418
    14  H    0.128849
    15  H    0.117597
    16  H    0.120435
 Sum of Mulliken atomic charges =   0.00000

 Dipole moment (field-independent basis, Debye):
    X=             -0.2841    Y=             -0.6308    Z=             -0.8544  Tot=              1.0994
 Quadrupole moment (field-independent basis, Debye-Ang):
   XX=            -41.1298   YY=            -49.3873   ZZ=            -42.8515
   XY=             -1.6641   XZ=             -0.2071   YZ=             -1.7609

 Normal termination of Gaussian 09 at Fri Aug 10 00:00:21 2018.
