 Gaussian 09, Revision C.01,
 Gaussian 09:  EM64L-G09RevC.01 23-Sep-2011

 --------------------------------------
 #SP PBE1PBE/Def2TZVP geom=connectivity
 --------------------------------------

 99/5=1,9=1/99;
 -------------
 Structure: 16
 -------------
 Charge =  0 Multiplicity = 1

                         Standard orientation:
 ---------------------------------------------------------------------
 Center     Atomic      Atomic             Coordinates (Angstroms)
 Number     Number       Type             X           Y           Z
 ---------------------------------------------------------------------
      1          1           0       -3.224909   -1.246804   -0.291606
      2          6           0       -2.231767   -0.856074   -0.527505
      3          6           0       -1.617879   -0.124227    0.665235
      4          1           0       -2.348337   -0.194499   -1.391244
      5          1           0       -1.609603   -1.699073   -0.838107
      6          1           0       -2.256469    0.712258    0.970027
      7         14           0        0.091593    0.545143    0.362125
      8          1           0       -1.559618   -0.793511    1.530181
      9          8           0        0.135603    1.421995   -0.641225
     10          8           0        1.038339   -0.764937    0.069841
     11          1           0        0.630663    1.313530    1.513536
     12          1           0       -0.219368    1.144728   -1.487546
     13          6           0        2.430798   -0.696102   -0.130088
     14          1           0        2.814885   -1.712847   -0.229586
     15          1           0        2.934195   -0.216092    0.717817
     16          1           0        2.677807   -0.137739   -1.038002
 ---------------------------------------------------------------------

 SCF Done:  E(RPBE1PBE) =  -559.954253054     A.U. after   12 cycles

 The electronic state is 1-A.
 Alpha  occ. eigenvalues --  -66.20363 -19.21250 -19.18572 -10.25975 -10.21497
 Alpha  occ. eigenvalues --  -10.19532  -5.29847  -3.63683  -3.63023  -3.62860
 Alpha  occ. eigenvalues --   -1.11664  -1.02513  -0.77593  -0.69878  -0.63966
 Alpha  occ. eigenvalues --   -0.61628  -0.51533  -0.47610  -0.46700  -0.45920
 Alpha  occ. eigenvalues --   -0.43679  -0.42925  -0.41529  -0.39435  -0.36223
 Alpha  occ. eigenvalues --   -0.35614  -0.31030  -0.29600  -0.28325
 Alpha virt. eigenvalues --    0.01734   0.06198   0.06672   0.08508   0.09136
 Alpha virt. eigenvalues --    0.10551   0.11432   0.12103   0.12571   0.13494
 Alpha virt. eigenvalues --    0.15294   0.15704   0.17126   0.17731   0.19805

 Mulliken atomic charges:
              1
     1  H    0.130864
     2  C   -0.401563
     3  C   -0.340734
     4  H    0.096408
     5  H    0.145336
     6  H    0.114460
     7  Si   0.448198
     8  H    0.113059
     9  O   -0.318604
    10  O   -0.364066
    11  H   -0.100082
    12  H    0.336148
    13  C   -0.211691
    14  H    0.127623
    15  H    0.117730
    16  H    0.106915
 Sum of Mulliken atomic charges =   0.00000

 Dipole moment (field-independent basis, Debye):
    X=             -0.2530    Y=              0.1183    Z=             -1.7496  Tot=              1.7718
 Quadrupole moment (field-independent basis, Debye-Ang):
   XX=            -41.9564   YY=            -47.7957   ZZ=            -42.8148
   XY=             -1.4271   XZ=             -0.1401   YZ=             -1.8516

 Normal termination of Gaussian 09 at Thu Aug  9 23:24:42 2018.
