 Gaussian 09, Revision C.01,
 Gaussian 09:  EM64L-G09RevC.01 23-Sep-2011

 --------------------------------------
 #SP PBE1PBE/Def2TZVP geom=connectivity
 --------------------------------------

 99/5=1,9=1/99;
 --------------
 Structure: 184
 --------------
 Charge =  0 Multiplicity = 1

                         Standard orientation:
 ---------------------------------------------------------------------
 Center     Atomic      Atomic             Coordinates (Angstroms)
 Number     Number       Type             X           Y           Z
 ---------------------------------------------------------------------
      1          1           0       -3.231095   -1.192362   -0.504528
      2          6           0       -2.235682   -0.767605   -0.657443
      3          6           0       -1.622333   -0.285759    0.656600
      4          1           0       -2.347019    0.050528   -1.375480
      5          1           0       -1.616042   -1.536486   -1.125501
      6          1           0       -2.258407    0.477944    1.117653
      7         14           0        0.090733    0.422127    0.493721
      8          1           0       -1.569341   -1.111423    1.374193
      9          8           0        0.154219    1.744175   -0.524208
     10          8           0        1.032996   -0.809886   -0.046973
     11          1           0        0.629535    0.948228    1.774218
     12          1           0       -0.199315    1.639447   -1.408156
     13          6           0        2.426306   -0.709666   -0.226685
     14          1           0        2.806544   -1.689109   -0.522160
     15          1           0        2.929155   -0.406908    0.699728
     16          1           0        2.678255    0.014219   -1.007455
 ---------------------------------------------------------------------

 SCF Done:  E(RPBE1PBE) =  -560.061070165     A.U. after   12 cycles

 The electronic state is 1-A.
 Alpha  occ. eigenvalues --  -66.25640 -19.20118 -19.20115 -10.26488 -10.21753
 Alpha  occ. eigenvalues --  -10.20953  -5.33248  -3.66773  -3.66666  -3.66521
 Alpha  occ. eigenvalues --   -1.04374  -1.01939  -0.78256  -0.70570  -0.64096
 Alpha  occ. eigenvalues --   -0.56430  -0.51107  -0.46887  -0.46656  -0.45984
 Alpha  occ. eigenvalues --   -0.43597  -0.41021  -0.38828  -0.37253  -0.36494
 Alpha  occ. eigenvalues --   -0.35494  -0.31906  -0.30493  -0.29764
 Alpha virt. eigenvalues --    0.02303   0.05474   0.05997   0.07977   0.08958
 Alpha virt. eigenvalues --    0.10137   0.10797   0.11340   0.12282   0.13479
 Alpha virt. eigenvalues --    0.13943   0.15212   0.16013   0.16465   0.19252

 Mulliken atomic charges:
              1
     1  H    0.130204
     2  C   -0.393073
     3  C   -0.303964
     4  H    0.106107
     5  H    0.142336
     6  H    0.121740
     7  Si   0.543013
     8  H    0.118231
     9  O   -0.538180
    10  O   -0.338190
    11  H   -0.061496
    12  H    0.317645
    13  C   -0.211447
    14  H    0.128868
    15  H    0.117599
    16  H    0.120609
 Sum of Mulliken atomic charges =   0.00000

 Dipole moment (field-independent basis, Debye):
    X=             -0.2854    Y=             -0.6433    Z=             -0.8437  Tot=              1.0987
 Quadrupole moment (field-independent basis, Debye-Ang):
   XX=            -41.1174   YY=            -49.4102   ZZ=            -42.8532
   XY=             -1.6686   XZ=             -0.2088   YZ=             -1.7601

 Normal termination of Gaussian 09 at Fri Aug 10 00:13:04 2018.
