 Gaussian 09, Revision C.01,
 Gaussian 09:  EM64L-G09RevC.01 23-Sep-2011

 --------------------------------------
 #SP PBE1PBE/Def2TZVP geom=connectivity
 --------------------------------------

 99/5=1,9=1/99;
 --------------
 Structure: 150
 --------------
 Charge =  0 Multiplicity = 1

                         Standard orientation:
 ---------------------------------------------------------------------
 Center     Atomic      Atomic             Coordinates (Angstroms)
 Number     Number       Type             X           Y           Z
 ---------------------------------------------------------------------
      1          1           0       -3.229695   -1.205478   -0.465186
      2          6           0       -2.234801   -0.785644   -0.634225
      3          6           0       -1.621314   -0.254912    0.660781
      4          1           0       -2.347343    0.005266   -1.381962
      5          1           0       -1.614587   -1.570670   -1.073860
      6          1           0       -2.257961    0.524663    1.093616
      7         14           0        0.090931    0.448225    0.470939
      8          1           0       -1.567110   -1.053424    1.408384
      9          8           0        0.149981    1.680021   -0.551347
     10          8           0        1.034217   -0.801971   -0.024329
     11          1           0        0.629809    1.021863    1.730825
     12          1           0       -0.203947    1.542097   -1.431604
     13          6           0        2.427334   -0.707035   -0.208356
     14          1           0        2.808450   -1.696343   -0.467616
     15          1           0        2.930318   -0.369715    0.705964
     16          1           0        2.678145   -0.012256   -1.015490
 ---------------------------------------------------------------------

 SCF Done:  E(RPBE1PBE) =  -560.059952262     A.U. after   12 cycles

 The electronic state is 1-A.
 Alpha  occ. eigenvalues --  -66.24779 -19.20522 -19.19796 -10.26371 -10.21689
 Alpha  occ. eigenvalues --  -10.20668  -5.32575  -3.66103  -3.65986  -3.65839
 Alpha  occ. eigenvalues --   -1.04858  -1.02825  -0.78109  -0.70416  -0.63974
 Alpha  occ. eigenvalues --   -0.57354  -0.51299  -0.46766  -0.46558  -0.45985
 Alpha  occ. eigenvalues --   -0.43502  -0.40786  -0.39683  -0.37174  -0.36984
 Alpha  occ. eigenvalues --   -0.35860  -0.31806  -0.30330  -0.29507
 Alpha virt. eigenvalues --    0.02266   0.05701   0.06137   0.08099   0.09007
 Alpha virt. eigenvalues --    0.10250   0.10971   0.11566   0.12359   0.13520
 Alpha virt. eigenvalues --    0.14303   0.15287   0.16250   0.16745   0.19387

 Mulliken atomic charges:
              1
     1  H    0.130263
     2  C   -0.394507
     3  C   -0.309838
     4  H    0.103949
     5  H    0.142843
     6  H    0.120257
     7  Si   0.528096
     8  H    0.117078
     9  O   -0.501713
    10  O   -0.341747
    11  H   -0.068396
    12  H    0.320844
    13  C   -0.210986
    14  H    0.128548
    15  H    0.117519
    16  H    0.117790
 Sum of Mulliken atomic charges =   0.00000

 Dipole moment (field-independent basis, Debye):
    X=             -0.2776    Y=             -0.4447    Z=             -1.0084  Tot=              1.1365
 Quadrupole moment (field-independent basis, Debye-Ang):
   XX=            -41.3049   YY=            -49.0137   ZZ=            -42.8654
   XY=             -1.6109   XZ=             -0.1906   YZ=             -1.7521

 Normal termination of Gaussian 09 at Fri Aug 10 02:58:03 2018.
