 Gaussian 09, Revision C.01,
 Gaussian 09:  EM64L-G09RevC.01 23-Sep-2011

 --------------------------------------
 #SP PBE1PBE/Def2TZVP geom=connectivity
 --------------------------------------

 99/5=1,9=1/99;
 --------------
 Structure: 186
 --------------
 Charge =  0 Multiplicity = 1

                         Standard orientation:
 ---------------------------------------------------------------------
 Center     Atomic      Atomic             Coordinates (Angstroms)
 Number     Number       Type             X           Y           Z
 ---------------------------------------------------------------------
      1          1           0       -3.231253   -1.191401   -0.506854
      2          6           0       -2.235792   -0.766409   -0.658800
      3          6           0       -1.622440   -0.287517    0.656323
      4          1           0       -2.347020    0.053313   -1.375039
      5          1           0       -1.616212   -1.534321   -1.128526
      6          1           0       -2.258454    0.475233    1.119032
      7         14           0        0.090702    0.420553    0.495062
      8          1           0       -1.569556   -1.114763    1.372099
      9          8           0        0.154816    1.747952   -0.522609
     10          8           0        1.032861   -0.810362   -0.048309
     11          1           0        0.629513    0.943780    1.776733
     12          1           0       -0.199608    1.644816   -1.406659
     13          6           0        2.426187   -0.709887   -0.227751
     14          1           0        2.806337   -1.688716   -0.525368
     15          1           0        2.929034   -0.409220    0.699344
     16          1           0        2.678236    0.015689   -1.006918
 ---------------------------------------------------------------------

 SCF Done:  E(RPBE1PBE) =  -560.060968789     A.U. after   12 cycles

 The electronic state is 1-A.
 Alpha  occ. eigenvalues --  -66.25688 -19.20137 -19.20092 -10.26494 -10.21759
 Alpha  occ. eigenvalues --  -10.20972  -5.33287  -3.66812  -3.66706  -3.66560
 Alpha  occ. eigenvalues --   -1.04367  -1.01862  -0.78266  -0.70579  -0.64104
 Alpha  occ. eigenvalues --   -0.56374  -0.51088  -0.46894  -0.46661  -0.45987
 Alpha  occ. eigenvalues --   -0.43604  -0.41036  -0.38784  -0.37256  -0.36483
 Alpha  occ. eigenvalues --   -0.35455  -0.31908  -0.30503  -0.29780
 Alpha virt. eigenvalues --    0.02300   0.05459   0.05987   0.07970   0.08954
 Alpha virt. eigenvalues --    0.10129   0.10784   0.11325   0.12277   0.13474
 Alpha virt. eigenvalues --    0.13922   0.15207   0.15997   0.16449   0.19244

 Mulliken atomic charges:
              1
     1  H    0.130210
     2  C   -0.392984
     3  C   -0.303663
     4  H    0.106221
     5  H    0.142323
     6  H    0.121840
     7  Si   0.543698
     8  H    0.118317
     9  O   -0.540187
    10  O   -0.337994
    11  H   -0.061093
    12  H    0.317514
    13  C   -0.211475
    14  H    0.128882
    15  H    0.117598
    16  H    0.120794
 Sum of Mulliken atomic charges =   0.00000

 Dipole moment (field-independent basis, Debye):
    X=             -0.2879    Y=             -0.6563    Z=             -0.8335  Tot=              1.0992
 Quadrupole moment (field-independent basis, Debye-Ang):
   XX=            -41.1054   YY=            -49.4364   ZZ=            -42.8536
   XY=             -1.6742   XZ=             -0.2079   YZ=             -1.7591

 Normal termination of Gaussian 09 at Fri Aug 10 00:25:48 2018.
