 Gaussian 09, Revision C.01,
 Gaussian 09:  EM64L-G09RevC.01 23-Sep-2011

 --------------------------------------
 #SP PBE1PBE/Def2TZVP geom=connectivity
 --------------------------------------

 99/5=1,9=1/99;
 --------------
 Structure: 109
 --------------
 Charge =  0 Multiplicity = 1

                         Standard orientation:
 ---------------------------------------------------------------------
 Center     Atomic      Atomic             Coordinates (Angstroms)
 Number     Number       Type             X           Y           Z
 ---------------------------------------------------------------------
      1          1           0       -3.228200   -1.219878   -0.414940
      2          6           0       -2.233868   -0.807315   -0.603998
      3          6           0       -1.620248   -0.216047    0.664449
      4          1           0       -2.347705   -0.052294   -1.387770
      5          1           0       -1.613027   -1.611334   -1.006888
      6          1           0       -2.257520    0.582192    1.060810
      7         14           0        0.091109    0.479316    0.440949
      8          1           0       -1.564740   -0.978732    1.448477
      9          8           0        0.145551    1.600869   -0.583095
     10          8           0        1.035506   -0.791612    0.004004
     11          1           0        0.630051    1.111724    1.672356
     12          1           0       -0.208642    1.421888   -1.454778
     13          6           0        2.428414   -0.703861   -0.185103
     14          1           0        2.810484   -1.703778   -0.398133
     15          1           0        2.931533   -0.323684    0.712169
     16          1           0        2.678002   -0.047244   -1.023941
 ---------------------------------------------------------------------

 SCF Done:  E(RPBE1PBE) =  -560.049167102     A.U. after   12 cycles

 The electronic state is 1-A.
 Alpha  occ. eigenvalues --  -66.23616 -19.20901 -19.19404 -10.26236 -10.21619
 Alpha  occ. eigenvalues --  -10.20322  -5.31735  -3.65286  -3.65124  -3.64969
 Alpha  occ. eigenvalues --   -1.06563  -1.02988  -0.77939  -0.70236  -0.63857
 Alpha  occ. eigenvalues --   -0.58695  -0.51397  -0.46683  -0.46482  -0.46025
 Alpha  occ. eigenvalues --   -0.43416  -0.40875  -0.40479  -0.38250  -0.36871
 Alpha  occ. eigenvalues --   -0.35858  -0.31604  -0.30108  -0.29167
 Alpha virt. eigenvalues --    0.02176   0.05925   0.06301   0.08239   0.09063
 Alpha virt. eigenvalues --    0.10369   0.11140   0.11785   0.12443   0.13540
 Alpha virt. eigenvalues --    0.14728   0.15365   0.16521   0.17102   0.19540

 Mulliken atomic charges:
              1
     1  H    0.130385
     2  C   -0.396376
     3  C   -0.318118
     4  H    0.101454
     5  H    0.143506
     6  H    0.118449
     7  Si   0.505349
     8  H    0.115742
     9  O   -0.450043
    10  O   -0.347091
    11  H   -0.077309
    12  H    0.324763
    13  C   -0.210751
    14  H    0.128199
    15  H    0.117457
    16  H    0.114383
 Sum of Mulliken atomic charges =   0.00000

 Dipole moment (field-independent basis, Debye):
    X=             -0.2700    Y=             -0.2299    Z=             -1.2195  Tot=              1.2700
 Quadrupole moment (field-independent basis, Debye-Ang):
   XX=            -41.5231   YY=            -48.5723   ZZ=            -42.8712
   XY=             -1.5465   XZ=             -0.1710   YZ=             -1.7580

 Normal termination of Gaussian 09 at Thu Aug  9 23:41:00 2018.
