 Gaussian 09, Revision C.01,
 Gaussian 09:  EM64L-G09RevC.01 23-Sep-2011

 --------------------------------------
 #SP PBE1PBE/Def2TZVP geom=connectivity
 --------------------------------------

 99/5=1,9=1/99;
 --------------
 Structure: 191
 --------------
 Charge =  0 Multiplicity = 1

                         Standard orientation:
 ---------------------------------------------------------------------
 Center     Atomic      Atomic             Coordinates (Angstroms)
 Number     Number       Type             X           Y           Z
 ---------------------------------------------------------------------
      1          1           0       -3.231403   -1.189666   -0.512196
      2          6           0       -2.235878   -0.764038   -0.661928
      3          6           0       -1.622549   -0.291881    0.655638
      4          1           0       -2.346957    0.059310   -1.374019
      5          1           0       -1.616367   -1.529644   -1.135492
      6          1           0       -2.258496    0.468601    1.122159
      7         14           0        0.090694    0.416776    0.498069
      8          1           0       -1.569817   -1.122743    1.367225
      9          8           0        0.155147    1.757370   -0.518423
     10          8           0        1.032729   -0.811496   -0.051461
     11          1           0        0.629489    0.933446    1.782403
     12          1           0       -0.198394    1.658962   -1.404124
     13          6           0        2.426080   -0.710294   -0.230304
     14          1           0        2.806124   -1.687653   -0.532843
     15          1           0        2.928906   -0.414382    0.698331
     16          1           0        2.678272    0.019181   -1.005776
 ---------------------------------------------------------------------

 SCF Done:  E(RPBE1PBE) =  -560.060656988     A.U. after   12 cycles

 The electronic state is 1-A.
 Alpha  occ. eigenvalues --  -66.25804 -19.20185 -19.20036 -10.26512 -10.21767
 Alpha  occ. eigenvalues --  -10.21010  -5.33380  -3.66906  -3.66800  -3.66654
 Alpha  occ. eigenvalues --   -1.04357  -1.01668  -0.78286  -0.70602  -0.64121
 Alpha  occ. eigenvalues --   -0.56251  -0.51044  -0.46914  -0.46677  -0.45987
 Alpha  occ. eigenvalues --   -0.43618  -0.41068  -0.38674  -0.37258  -0.36458
 Alpha  occ. eigenvalues --   -0.35359  -0.31914  -0.30523  -0.29812
 Alpha virt. eigenvalues --    0.02294   0.05423   0.05965   0.07952   0.08943
 Alpha virt. eigenvalues --    0.10111   0.10756   0.11290   0.12265   0.13465
 Alpha virt. eigenvalues --    0.13874   0.15192   0.15958   0.16410   0.19223

 Mulliken atomic charges:
              1
     1  H    0.130197
     2  C   -0.392802
     3  C   -0.302836
     4  H    0.106538
     5  H    0.142235
     6  H    0.122042
     7  Si   0.545552
     8  H    0.118466
     9  O   -0.545165
    10  O   -0.337530
    11  H   -0.060141
    12  H    0.317268
    13  C   -0.211560
    14  H    0.128938
    15  H    0.117626
    16  H    0.121173
 Sum of Mulliken atomic charges =   0.00000

 Dipole moment (field-independent basis, Debye):
    X=             -0.2869    Y=             -0.6864    Z=             -0.8133  Tot=              1.1023
 Quadrupole moment (field-independent basis, Debye-Ang):
   XX=            -41.0801   YY=            -49.4978   ZZ=            -42.8466
   XY=             -1.6810   XZ=             -0.2127   YZ=             -1.7661

 Normal termination of Gaussian 09 at Fri Aug 10 00:57:37 2018.
