 Gaussian 09, Revision C.01,
 Gaussian 09:  EM64L-G09RevC.01 23-Sep-2011

 --------------------------------------
 #SP PBE1PBE/Def2TZVP geom=connectivity
 --------------------------------------

 99/5=1,9=1/99;
 ------------
 Structure: 1
 ------------
 Charge =  0 Multiplicity = 1

                         Standard orientation:
 ---------------------------------------------------------------------
 Center     Atomic      Atomic             Coordinates (Angstroms)
 Number     Number       Type             X           Y           Z
 ---------------------------------------------------------------------
      1          1           0        3.224319   -1.250070    0.271631
      2          6           0        2.231371   -0.863340    0.514826
      3          6           0        1.617464   -0.109739   -0.664279
      4          1           0        2.348378   -0.217602    1.390409
      5          1           0        1.608980   -1.711624    0.810217
      6          1           0        2.256278    0.731919   -0.953984
      7         14           0       -0.091700    0.554614   -0.348654
      8          1           0        1.558764   -0.763185   -1.541224
      9          8           0       -0.133767    1.394043    0.648077
     10          8           0       -1.038842   -0.760226   -0.079981
     11          1           0       -0.630767    1.343973   -1.485791
     12          1           0        0.221231    1.101718    1.488220
     13          6           0       -2.431230   -0.694546    0.121499
     14          1           0       -2.815654   -1.712796    0.202607
     15          1           0       -2.934654   -0.199041   -0.717429
     16          1           0       -2.677829   -0.152676    1.039462
 ---------------------------------------------------------------------

 SCF Done:  E(RPBE1PBE) =  -559.924705321     A.U. after   12 cycles

 The electronic state is 1-A.
 Alpha  occ. eigenvalues --  -66.19764 -19.21215 -19.18451 -10.25941 -10.21483
 Alpha  occ. eigenvalues --  -10.19410  -5.29585  -3.63519  -3.62693  -3.62529
 Alpha  occ. eigenvalues --   -1.12493  -1.02429  -0.77547  -0.69830  -0.64130
 Alpha  occ. eigenvalues --   -0.61969  -0.51595  -0.47982  -0.46810  -0.45880
 Alpha  occ. eigenvalues --   -0.43871  -0.43088  -0.41787  -0.39366  -0.36115
 Alpha  occ. eigenvalues --   -0.35573  -0.30938  -0.29526  -0.28189
 Alpha virt. eigenvalues --    0.01659   0.06214   0.06732   0.08539   0.09144
 Alpha virt. eigenvalues --    0.10567   0.11468   0.12139   0.12582   0.13479
 Alpha virt. eigenvalues --    0.15317   0.15785   0.17219   0.17805   0.19836

 Mulliken atomic charges:
              1
     1  H    0.130958
     2  C   -0.402432
     3  C   -0.344701
     4  H    0.095752
     5  H    0.145648
     6  H    0.113862
     7  Si   0.441338
     8  H    0.112680
     9  O   -0.298827
    10  O   -0.367292
    11  H   -0.103941
    12  H    0.337792
    13  C   -0.212039
    14  H    0.127558
    15  H    0.117830
    16  H    0.105813
 Sum of Mulliken atomic charges =   0.00000

 Dipole moment (field-independent basis, Debye):
    X=              0.2504    Y=              0.1545    Z=              1.8339  Tot=              1.8574
 Quadrupole moment (field-independent basis, Debye-Ang):
   XX=            -42.0114   YY=            -47.6987   ZZ=            -42.8021
   XY=              1.4116   XZ=             -0.1373   YZ=              1.8721

 Normal termination of Gaussian 09 at Thu Aug  9 23:51:21 2018.
