 Gaussian 09, Revision C.01,
 Gaussian 09:  EM64L-G09RevC.01 23-Sep-2011

 --------------------------------------
 #SP PBE1PBE/Def2TZVP geom=connectivity
 --------------------------------------

 99/5=1,9=1/99;
 --------------
 Structure: 146
 --------------
 Charge =  0 Multiplicity = 1

                         Standard orientation:
 ---------------------------------------------------------------------
 Center     Atomic      Atomic             Coordinates (Angstroms)
 Number     Number       Type             X           Y           Z
 ---------------------------------------------------------------------
      1          1           0       -3.229433   -1.207024   -0.460259
      2          6           0       -2.234622   -0.787791   -0.631267
      3          6           0       -1.621140   -0.251090    0.661280
      4          1           0       -2.347348   -0.000298   -1.382574
      5          1           0       -1.614302   -1.574695   -1.067381
      6          1           0       -2.257891    0.530330    1.090619
      7         14           0        0.090973    0.451472    0.468137
      8          1           0       -1.566748   -1.046195    1.412490
      9          8           0        0.149174    1.671508   -0.554939
     10          8           0        1.034439   -0.800795   -0.021523
     11          1           0        0.629836    1.030907    1.725373
     12          1           0       -0.204717    1.529760   -1.433567
     13          6           0        2.427528   -0.706456   -0.206073
     14          1           0        2.808796   -1.696863   -0.460871
     15          1           0        2.930515   -0.364909    0.706676
     16          1           0        2.678166   -0.015300   -1.016365
 ---------------------------------------------------------------------

 SCF Done:  E(RPBE1PBE) =  -560.059378196     A.U. after   12 cycles

 The electronic state is 1-A.
 Alpha  occ. eigenvalues --  -66.24666 -19.20558 -19.19754 -10.26357 -10.21681
 Alpha  occ. eigenvalues --  -10.20632  -5.32491  -3.66020  -3.65900  -3.65752
 Alpha  occ. eigenvalues --   -1.04997  -1.02887  -0.78090  -0.70397  -0.63960
 Alpha  occ. eigenvalues --   -0.57502  -0.51317  -0.46753  -0.46547  -0.45988
 Alpha  occ. eigenvalues --   -0.43491  -0.40762  -0.39795  -0.37219  -0.37031
 Alpha  occ. eigenvalues --   -0.35872  -0.31788  -0.30307  -0.29473
 Alpha virt. eigenvalues --    0.02269   0.05727   0.06156   0.08113   0.09015
 Alpha virt. eigenvalues --    0.10265   0.10991   0.11591   0.12369   0.13524
 Alpha virt. eigenvalues --    0.14346   0.15297   0.16281   0.16788   0.19404

 Mulliken atomic charges:
              1
     1  H    0.130271
     2  C   -0.394689
     3  C   -0.310648
     4  H    0.103689
     5  H    0.142909
     6  H    0.120059
     7  Si   0.526007
     8  H    0.116925
     9  O   -0.496591
    10  O   -0.342240
    11  H   -0.069253
    12  H    0.321064
    13  C   -0.210953
    14  H    0.128507
    15  H    0.117499
    16  H    0.117443
 Sum of Mulliken atomic charges =   0.00000

 Dipole moment (field-independent basis, Debye):
    X=             -0.2764    Y=             -0.4199    Z=             -1.0277  Tot=              1.1440
 Quadrupole moment (field-independent basis, Debye-Ang):
   XX=            -41.3274   YY=            -48.9619   ZZ=            -42.8683
   XY=             -1.6028   XZ=             -0.1876   YZ=             -1.7494

 Normal termination of Gaussian 09 at Fri Aug 10 02:32:23 2018.
