 Gaussian 09, Revision C.01,
 Gaussian 09:  EM64L-G09RevC.01 23-Sep-2011

 --------------------------------------
 #SP PBE1PBE/Def2TZVP geom=connectivity
 --------------------------------------

 99/5=1,9=1/99;
 --------------
 Structure: 173
 --------------
 Charge =  0 Multiplicity = 1

                         Standard orientation:
 ---------------------------------------------------------------------
 Center     Atomic      Atomic             Coordinates (Angstroms)
 Number     Number       Type             X           Y           Z
 ---------------------------------------------------------------------
      1          1           0       -3.230704   -1.196547   -0.492169
      2          6           0       -2.235446   -0.773299   -0.650195
      3          6           0       -1.622039   -0.275950    0.658033
      4          1           0       -2.347148    0.036356   -1.377721
      5          1           0       -1.615642   -1.547405   -1.109340
      6          1           0       -2.258277    0.492891    1.110235
      7         14           0        0.090782    0.430511    0.486621
      8          1           0       -1.568679   -1.093159    1.385212
      9          8           0        0.153142    1.723770   -0.533035
     10          8           0        1.033341   -0.807444   -0.039798
     11          1           0        0.629624    0.971697    1.760799
     12          1           0       -0.201409    1.608229   -1.415497
     13          6           0        2.426592   -0.708903   -0.220892
     14          1           0        2.807085   -1.691613   -0.504968
     15          1           0        2.929493   -0.395191    0.701841
     16          1           0        2.678194    0.005890   -1.010104
 ---------------------------------------------------------------------

 SCF Done:  E(RPBE1PBE) =  -560.061317502     A.U. after   12 cycles

 The electronic state is 1-A.
 Alpha  occ. eigenvalues --  -66.25374 -19.20252 -19.20015 -10.26449 -10.21734
 Alpha  occ. eigenvalues --  -10.20865  -5.33036  -3.66561  -3.66452  -3.66307
 Alpha  occ. eigenvalues --   -1.04441  -1.02299  -0.78210  -0.70520  -0.64057
 Alpha  occ. eigenvalues --   -0.56702  -0.51182  -0.46845  -0.46622  -0.45984
 Alpha  occ. eigenvalues --   -0.43566  -0.40945  -0.39090  -0.37227  -0.36593
 Alpha  occ. eigenvalues --   -0.35670  -0.31883  -0.30445  -0.29687
 Alpha virt. eigenvalues --    0.02297   0.05551   0.06043   0.08016   0.08975
 Alpha virt. eigenvalues --    0.10175   0.10856   0.11416   0.12307   0.13495
 Alpha virt. eigenvalues --    0.14056   0.15239   0.16090   0.16551   0.19296

 Mulliken atomic charges:
              1
     1  H    0.130227
     2  C   -0.393509
     3  C   -0.305793
     4  H    0.105402
     5  H    0.142511
     6  H    0.121283
     7  Si   0.538579
     8  H    0.117880
     9  O   -0.527019
    10  O   -0.339262
    11  H   -0.063669
    12  H    0.318590
    13  C   -0.211274
    14  H    0.128759
    15  H    0.117566
    16  H    0.119730
 Sum of Mulliken atomic charges =   0.00000

 Dipole moment (field-independent basis, Debye):
    X=             -0.2849    Y=             -0.5787    Z=             -0.8941  Tot=              1.1024
 Quadrupole moment (field-independent basis, Debye-Ang):
   XX=            -41.1761   YY=            -49.2815   ZZ=            -42.8611
   XY=             -1.6519   XZ=             -0.2011   YZ=             -1.7533

 Normal termination of Gaussian 09 at Fri Aug 10 05:26:09 2018.
