 Gaussian 09, Revision C.01,
 Gaussian 09:  EM64L-G09RevC.01 23-Sep-2011

 --------------------------------------
 #SP PBE1PBE/Def2TZVP geom=connectivity
 --------------------------------------

 99/5=1,9=1/99;
 --------------
 Structure: 159
 --------------
 Charge =  0 Multiplicity = 1

                         Standard orientation:
 ---------------------------------------------------------------------
 Center     Atomic      Atomic             Coordinates (Angstroms)
 Number     Number       Type             X           Y           Z
 ---------------------------------------------------------------------
      1          1           0       -3.230108   -1.201772   -0.476243
      2          6           0       -2.235067   -0.780499   -0.640775
      3          6           0       -1.621616   -0.263410    0.659756
      4          1           0       -2.347269    0.018158   -1.380283
      5          1           0       -1.615017   -1.561103   -1.088441
      6          1           0       -2.258099    0.511819    1.100563
      7         14           0        0.090862    0.441157    0.477464
      8          1           0       -1.567753   -1.069650    1.399042
      9          8           0        0.151353    1.697230   -0.544266
     10          8           0        1.033856   -0.804110   -0.030612
     11          1           0        0.629722    1.001536    1.743310
     12          1           0       -0.203324    1.568375   -1.424832
     13          6           0        2.427028   -0.707678   -0.213445
     14          1           0        2.807894   -1.694354   -0.482899
     15          1           0        2.929976   -0.380009    0.704398
     16          1           0        2.678159   -0.004636   -1.013292
 ---------------------------------------------------------------------

 SCF Done:  E(RPBE1PBE) =  -560.060834043     A.U. after   12 cycles

 The electronic state is 1-A.
 Alpha  occ. eigenvalues --  -66.25022 -19.20413 -19.19881 -10.26401 -10.21708
 Alpha  occ. eigenvalues --  -10.20748  -5.32762  -3.66288  -3.66175  -3.66029
 Alpha  occ. eigenvalues --   -1.04641  -1.02665  -0.78150  -0.70457  -0.64007
 Alpha  occ. eigenvalues --   -0.57091  -0.51259  -0.46795  -0.46582  -0.45984
 Alpha  occ. eigenvalues --   -0.43527  -0.40850  -0.39442  -0.37184  -0.36811
 Alpha  occ. eigenvalues --   -0.35814  -0.31839  -0.30376  -0.29581
 Alpha virt. eigenvalues --    0.02285   0.05643   0.06101   0.08066   0.08996
 Alpha virt. eigenvalues --    0.10222   0.10926   0.11508   0.12339   0.13511
 Alpha virt. eigenvalues --    0.14203   0.15270   0.16188   0.16670   0.19351

 Mulliken atomic charges:
              1
     1  H    0.130251
     2  C   -0.394098
     3  C   -0.308200
     4  H    0.104522
     5  H    0.142721
     6  H    0.120668
     7  Si   0.532477
     8  H    0.117403
     9  O   -0.512047
    10  O   -0.340718
    11  H   -0.066459
    12  H    0.319842
    13  C   -0.211087
    14  H    0.128624
    15  H    0.117522
    16  H    0.118578
 Sum of Mulliken atomic charges =   0.00000

 Dipole moment (field-independent basis, Debye):
    X=             -0.2817    Y=             -0.4966    Z=             -0.9603  Tot=              1.1172
 Quadrupole moment (field-independent basis, Debye-Ang):
   XX=            -41.2531   YY=            -49.1169   ZZ=            -42.8661
   XY=             -1.6276   XZ=             -0.1931   YZ=             -1.7489

 Normal termination of Gaussian 09 at Fri Aug 10 03:56:11 2018.
