 Gaussian 09, Revision C.01,
 Gaussian 09:  EM64L-G09RevC.01 23-Sep-2011

 --------------------------------------
 #SP PBE1PBE/Def2TZVP geom=connectivity
 --------------------------------------

 99/5=1,9=1/99;
 --------------
 Structure: 151
 --------------
 Charge =  0 Multiplicity = 1

                         Standard orientation:
 ---------------------------------------------------------------------
 Center     Atomic      Atomic             Coordinates (Angstroms)
 Number     Number       Type             X           Y           Z
 ---------------------------------------------------------------------
      1          1           0       -3.229847   -1.204902   -0.466314
      2          6           0       -2.234912   -0.784979   -0.634895
      3          6           0       -1.621424   -0.255613    0.660671
      4          1           0       -2.347364    0.006699   -1.381832
      5          1           0       -1.614748   -1.569609   -1.075306
      6          1           0       -2.258021    0.523574    1.094276
      7         14           0        0.090886    0.447574    0.471599
      8          1           0       -1.567310   -1.054888    1.407463
      9          8           0        0.150502    1.681463   -0.550734
     10          8           0        1.034084   -0.802196   -0.024908
     11          1           0        0.629769    1.019888    1.732084
     12          1           0       -0.203408    1.544462   -1.431143
     13          6           0        2.427215   -0.707189   -0.208793
     14          1           0        2.808258   -1.696264   -0.469044
     15          1           0        2.930197   -0.370839    0.705886
     16          1           0        2.678110   -0.011611   -1.015213
 ---------------------------------------------------------------------

 SCF Done:  E(RPBE1PBE) =  -560.060051779     A.U. after   12 cycles

 The electronic state is 1-A.
 Alpha  occ. eigenvalues --  -66.24801 -19.20512 -19.19802 -10.26373 -10.21691
 Alpha  occ. eigenvalues --  -10.20676  -5.32592  -3.66120  -3.66003  -3.65856
 Alpha  occ. eigenvalues --   -1.04834  -1.02811  -0.78113  -0.70419  -0.63977
 Alpha  occ. eigenvalues --   -0.57329  -0.51295  -0.46767  -0.46560  -0.45985
 Alpha  occ. eigenvalues --   -0.43504  -0.40792  -0.39660  -0.37172  -0.36970
 Alpha  occ. eigenvalues --   -0.35857  -0.31808  -0.30334  -0.29513
 Alpha virt. eigenvalues --    0.02267   0.05696   0.06134   0.08096   0.09005
 Alpha virt. eigenvalues --    0.10248   0.10966   0.11561   0.12358   0.13519
 Alpha virt. eigenvalues --    0.14295   0.15286   0.16243   0.16738   0.19383

 Mulliken atomic charges:
              1
     1  H    0.130263
     2  C   -0.394472
     3  C   -0.309681
     4  H    0.104008
     5  H    0.142834
     6  H    0.120293
     7  Si   0.528498
     8  H    0.117115
     9  O   -0.502693
    10  O   -0.341658
    11  H   -0.068213
    12  H    0.320772
    13  C   -0.210983
    14  H    0.128551
    15  H    0.117513
    16  H    0.117854
 Sum of Mulliken atomic charges =   0.00000

 Dipole moment (field-independent basis, Debye):
    X=             -0.2786    Y=             -0.4489    Z=             -1.0039  Tot=              1.1345
 Quadrupole moment (field-independent basis, Debye-Ang):
   XX=            -41.3013   YY=            -49.0220   ZZ=            -42.8647
   XY=             -1.6128   XZ=             -0.1913   YZ=             -1.7521

 Normal termination of Gaussian 09 at Fri Aug 10 03:04:35 2018.
