 Gaussian 09, Revision C.01,
 Gaussian 09:  EM64L-G09RevC.01 23-Sep-2011

 --------------------------------------
 #SP PBE1PBE/Def2TZVP geom=connectivity
 --------------------------------------

 99/5=1,9=1/99;
 --------------
 Structure: 119
 --------------
 Charge =  0 Multiplicity = 1

                         Standard orientation:
 ---------------------------------------------------------------------
 Center     Atomic      Atomic             Coordinates (Angstroms)
 Number     Number       Type             X           Y           Z
 ---------------------------------------------------------------------
      1          1           0       -3.228371   -1.216736   -0.427433
      2          6           0       -2.233947   -0.802164   -0.611557
      3          6           0       -1.620376   -0.225826    0.663766
      4          1           0       -2.347567   -0.038039   -1.386487
      5          1           0       -1.613195   -1.601538   -1.023721
      6          1           0       -2.257559    0.567846    1.069332
      7         14           0        0.091124    0.471807    0.448582
      8          1           0       -1.565085   -0.997608    1.438857
      9          8           0        0.145964    1.620173   -0.575621
     10          8           0        1.035359   -0.794102   -0.003041
     11          1           0        0.630030    1.089726    1.687338
     12          1           0       -0.208159    1.451426   -1.449372
     13          6           0        2.428303   -0.704387   -0.190954
     14          1           0        2.810231   -1.701818   -0.415581
     15          1           0        2.931382   -0.334780    0.710745
     16          1           0        2.678099   -0.038079   -1.022053
 ---------------------------------------------------------------------

 SCF Done:  E(RPBE1PBE) =  -560.052982593     A.U. after   12 cycles

 The electronic state is 1-A.
 Alpha  occ. eigenvalues --  -66.23914 -19.20817 -19.19500 -10.26269 -10.21634
 Alpha  occ. eigenvalues --  -10.20405  -5.31943  -3.65485  -3.65339  -3.65186
 Alpha  occ. eigenvalues --   -1.06080  -1.03005  -0.77978  -0.70280  -0.63881
 Alpha  occ. eigenvalues --   -0.58361  -0.51384  -0.46693  -0.46493  -0.46013
 Alpha  occ. eigenvalues --   -0.43433  -0.40692  -0.40435  -0.37945  -0.36932
 Alpha  occ. eigenvalues --   -0.35873  -0.31659  -0.30163  -0.29252
 Alpha virt. eigenvalues --    0.02206   0.05876   0.06262   0.08206   0.09051
 Alpha virt. eigenvalues --    0.10342   0.11103   0.11737   0.12423   0.13538
 Alpha virt. eigenvalues --    0.14626   0.15347   0.16457   0.17020   0.19505

 Mulliken atomic charges:
              1
     1  H    0.130348
     2  C   -0.395901
     3  C   -0.315984
     4  H    0.102041
     5  H    0.143334
     6  H    0.118881
     7  Si   0.511332
     8  H    0.116040
     9  O   -0.463288
    10  O   -0.345656
    11  H   -0.075049
    12  H    0.323722
    13  C   -0.210788
    14  H    0.128282
    15  H    0.117466
    16  H    0.115219
 Sum of Mulliken atomic charges =   0.00000

 Dipole moment (field-independent basis, Debye):
    X=             -0.2707    Y=             -0.2789    Z=             -1.1660  Tot=              1.2291
 Quadrupole moment (field-independent basis, Debye-Ang):
   XX=            -41.4702   YY=            -48.6742   ZZ=            -42.8717
   XY=             -1.5604   XZ=             -0.1746   YZ=             -1.7537

 Normal termination of Gaussian 09 at Thu Aug  9 23:37:00 2018.
