 Gaussian 09, Revision C.01,
 Gaussian 09:  EM64L-G09RevC.01 23-Sep-2011

 --------------------------------------
 #SP PBE1PBE/Def2TZVP geom=connectivity
 --------------------------------------

 99/5=1,9=1/99;
 --------------
 Structure: 126
 --------------
 Charge =  0 Multiplicity = 1

                         Standard orientation:
 ---------------------------------------------------------------------
 Center     Atomic      Atomic             Coordinates (Angstroms)
 Number     Number       Type             X           Y           Z
 ---------------------------------------------------------------------
      1          1           0       -3.228645   -1.214320   -0.436012
      2          6           0       -2.234123   -0.798494   -0.616739
      3          6           0       -1.620570   -0.232416    0.663180
      4          1           0       -2.347515   -0.028220   -1.385592
      5          1           0       -1.613483   -1.594692   -1.035172
      6          1           0       -2.257642    0.558136    1.074969
      7         14           0        0.091086    0.466569    0.453713
      8          1           0       -1.565509   -1.010336    1.432126
      9          8           0        0.146788    1.633614   -0.570306
     10          8           0        1.035122   -0.795898   -0.007847
     11          1           0        0.629985    1.074532    1.697390
     12          1           0       -0.207277    1.471876   -1.445404
     13          6           0        2.428103   -0.704966   -0.194901
     14          1           0        2.809861   -1.700657   -0.427399
     15          1           0        2.931161   -0.342626    0.709755
     16          1           0        2.678114   -0.032131   -1.020660
 ---------------------------------------------------------------------

 SCF Done:  E(RPBE1PBE) =  -560.055141360     A.U. after   12 cycles

 The electronic state is 1-A.
 Alpha  occ. eigenvalues --  -66.24114 -19.20755 -19.19566 -10.26292 -10.21646
 Alpha  occ. eigenvalues --  -10.20464  -5.32086  -3.65623  -3.65486  -3.65335
 Alpha  occ. eigenvalues --   -1.05765  -1.03002  -0.78007  -0.70310  -0.63900
 Alpha  occ. eigenvalues --   -0.58132  -0.51371  -0.46704  -0.46505  -0.46005
 Alpha  occ. eigenvalues --   -0.43447  -0.40669  -0.40308  -0.37736  -0.36971
 Alpha  occ. eigenvalues --   -0.35881  -0.31695  -0.30202  -0.29310
 Alpha virt. eigenvalues --    0.02225   0.05840   0.06235   0.08182   0.09043
 Alpha virt. eigenvalues --    0.10322   0.11075   0.11702   0.12409   0.13535
 Alpha virt. eigenvalues --    0.14556   0.15334   0.16412   0.16959   0.19479

 Mulliken atomic charges:
              1
     1  H    0.130326
     2  C   -0.395575
     3  C   -0.314554
     4  H    0.102466
     5  H    0.143220
     6  H    0.119191
     7  Si   0.515311
     8  H    0.116269
     9  O   -0.472202
    10  O   -0.344716
    11  H   -0.073533
    12  H    0.323001
    13  C   -0.210815
    14  H    0.128340
    15  H    0.117476
    16  H    0.115796
 Sum of Mulliken atomic charges =   0.00000

 Dipole moment (field-independent basis, Debye):
    X=             -0.2721    Y=             -0.3145    Z=             -1.1297  Tot=              1.2038
 Quadrupole moment (field-independent basis, Debye-Ang):
   XX=            -41.4332   YY=            -48.7473   ZZ=            -42.8719
   XY=             -1.5714   XZ=             -0.1781   YZ=             -1.7519

 Normal termination of Gaussian 09 at Fri Aug 10 00:22:42 2018.
