 Gaussian 09, Revision C.01,
 Gaussian 09:  EM64L-G09RevC.01 23-Sep-2011

 --------------------------------------
 #SP PBE1PBE/Def2TZVP geom=connectivity
 --------------------------------------

 99/5=1,9=1/99;
 -------------
 Structure: 13
 -------------
 Charge =  0 Multiplicity = 1

                         Standard orientation:
 ---------------------------------------------------------------------
 Center     Atomic      Atomic             Coordinates (Angstroms)
 Number     Number       Type             X           Y           Z
 ---------------------------------------------------------------------
      1          1           0       -3.224985   -1.247112   -0.287914
      2          6           0       -2.231840   -0.857208   -0.525161
      3          6           0       -1.617938   -0.121267    0.665050
      4          1           0       -2.348406   -0.198610   -1.391172
      5          1           0       -1.609687   -1.701279   -0.832862
      6          1           0       -2.256517    0.716270    0.966963
      7         14           0        0.091540    0.547036    0.359631
      8          1           0       -1.559682   -0.787570    1.532295
      9          8           0        0.135940    1.416194   -0.642869
     10          8           0        1.038269   -0.764054    0.071854
     11          1           0        0.630624    1.319376    1.508387
     12          1           0       -0.218965    1.136396   -1.487306
     13          6           0        2.430729   -0.695923   -0.128316
     14          1           0        2.814803   -1.713010   -0.224314
     15          1           0        2.934134   -0.213004    0.717929
     16          1           0        2.677740   -0.140693   -1.038148
 ---------------------------------------------------------------------

 SCF Done:  E(RPBE1PBE) =  -559.948972198     A.U. after   12 cycles

 The electronic state is 1-A.
 Alpha  occ. eigenvalues --  -66.20251 -19.21239 -19.18545 -10.25967 -10.21495
 Alpha  occ. eigenvalues --  -10.19511  -5.29796  -3.63650  -3.62960  -3.62797
 Alpha  occ. eigenvalues --   -1.11840  -1.02494  -0.77586  -0.69867  -0.63999
 Alpha  occ. eigenvalues --   -0.61713  -0.51542  -0.47679  -0.46719  -0.45912
 Alpha  occ. eigenvalues --   -0.43712  -0.42961  -0.41585  -0.39425  -0.36203
 Alpha  occ. eigenvalues --   -0.35608  -0.31010  -0.29584  -0.28301
 Alpha virt. eigenvalues --    0.01730   0.06202   0.06686   0.08513   0.09139
 Alpha virt. eigenvalues --    0.10556   0.11438   0.12111   0.12574   0.13493
 Alpha virt. eigenvalues --    0.15301   0.15720   0.17141   0.17747   0.19810

 Mulliken atomic charges:
              1
     1  H    0.130881
     2  C   -0.401715
     3  C   -0.341501
     4  H    0.096307
     5  H    0.145402
     6  H    0.114350
     7  Si   0.446749
     8  H    0.113013
     9  O   -0.314529
    10  O   -0.364697
    11  H   -0.100814
    12  H    0.336265
    13  C   -0.211738
    14  H    0.127603
    15  H    0.117731
    16  H    0.106692
 Sum of Mulliken atomic charges =   0.00000

 Dipole moment (field-independent basis, Debye):
    X=             -0.2539    Y=              0.1266    Z=             -1.7644  Tot=              1.7871
 Quadrupole moment (field-independent basis, Debye-Ang):
   XX=            -41.9676   YY=            -47.7731   ZZ=            -42.8144
   XY=             -1.4241   XZ=             -0.1404   YZ=             -1.8543

 Normal termination of Gaussian 09 at Thu Aug  9 23:04:32 2018.
