 Gaussian 09, Revision C.01,
 Gaussian 09:  EM64L-G09RevC.01 23-Sep-2011

 --------------------------------------
 #SP PBE1PBE/Def2TZVP geom=connectivity
 --------------------------------------

 99/5=1,9=1/99;
 --------------
 Structure: 132
 --------------
 Charge =  0 Multiplicity = 1

                         Standard orientation:
 ---------------------------------------------------------------------
 Center     Atomic      Atomic             Coordinates (Angstroms)
 Number     Number       Type             X           Y           Z
 ---------------------------------------------------------------------
      1          1           0       -3.228897   -1.212228   -0.443069
      2          6           0       -2.234286   -0.795400   -0.620984
      3          6           0       -1.620746   -0.237824    0.662668
      4          1           0       -2.347479   -0.020087   -1.384784
      5          1           0       -1.613748   -1.588947   -1.044569
      6          1           0       -2.257716    0.550125    1.079572
      7         14           0        0.091049    0.462221    0.457930
      8          1           0       -1.565886   -1.020773    1.426507
      9          8           0        0.147556    1.644668   -0.565803
     10          8           0        1.034906   -0.797360   -0.011810
     11          1           0        0.629946    1.061931    1.705608
     12          1           0       -0.206533    1.488485   -1.442940
     13          6           0        2.427919   -0.705446   -0.198145
     14          1           0        2.809524   -1.699659   -0.437128
     15          1           0        2.930962   -0.349126    0.708907
     16          1           0        2.678117   -0.027260   -1.019458
 ---------------------------------------------------------------------

 SCF Done:  E(RPBE1PBE) =  -560.056644429     A.U. after   12 cycles

 The electronic state is 1-A.
 Alpha  occ. eigenvalues --  -66.24276 -19.20708 -19.19620 -10.26310 -10.21656
 Alpha  occ. eigenvalues --  -10.20512  -5.32202  -3.65736  -3.65606  -3.65455
 Alpha  occ. eigenvalues --   -1.05505  -1.02982  -0.78030  -0.70335  -0.63915
 Alpha  occ. eigenvalues --   -0.57930  -0.51356  -0.46716  -0.46515  -0.45999
 Alpha  occ. eigenvalues --   -0.43458  -0.40684  -0.40166  -0.37566  -0.37000
 Alpha  occ. eigenvalues --   -0.35884  -0.31723  -0.30232  -0.29357
 Alpha virt. eigenvalues --    0.02230   0.05808   0.06210   0.08163   0.09032
 Alpha virt. eigenvalues --    0.10306   0.11051   0.11671   0.12398   0.13532
 Alpha virt. eigenvalues --    0.14497   0.15322   0.16373   0.16908   0.19457

 Mulliken atomic charges:
              1
     1  H    0.130310
     2  C   -0.395328
     3  C   -0.313372
     4  H    0.102803
     5  H    0.143130
     6  H    0.119440
     7  Si   0.518493
     8  H    0.116454
     9  O   -0.479621
    10  O   -0.343971
    11  H   -0.072277
    12  H    0.322648
    13  C   -0.210839
    14  H    0.128386
    15  H    0.117483
    16  H    0.116262
 Sum of Mulliken atomic charges =   0.00000

 Dipole moment (field-independent basis, Debye):
    X=             -0.2733    Y=             -0.3443    Z=             -1.1012  Tot=              1.1857
 Quadrupole moment (field-independent basis, Debye-Ang):
   XX=            -41.4044   YY=            -48.8101   ZZ=            -42.8682
   XY=             -1.5804   XZ=             -0.1807   YZ=             -1.7524

 Normal termination of Gaussian 09 at Fri Aug 10 01:01:38 2018.
