 Gaussian 09, Revision C.01,
 Gaussian 09:  EM64L-G09RevC.01 23-Sep-2011

 --------------------------------------
 #SP PBE1PBE/Def2TZVP geom=connectivity
 --------------------------------------

 99/5=1,9=1/99;
 --------------
 Structure: 156
 --------------
 Charge =  0 Multiplicity = 1

                         Standard orientation:
 ---------------------------------------------------------------------
 Center     Atomic      Atomic             Coordinates (Angstroms)
 Number     Number       Type             X           Y           Z
 ---------------------------------------------------------------------
      1          1           0       -3.229928   -1.203100   -0.472404
      2          6           0       -2.234946   -0.782302   -0.638502
      3          6           0       -1.621493   -0.260459    0.660128
      4          1           0       -2.347280    0.013674   -1.380875
      5          1           0       -1.614824   -1.564438   -1.083386
      6          1           0       -2.258048    0.516275    1.098173
      7         14           0        0.090891    0.443653    0.475216
      8          1           0       -1.567497   -1.064027    1.402310
      9          8           0        0.150702    1.691049   -0.546814
     10          8           0        1.034010   -0.803321   -0.028420
     11          1           0        0.629746    1.008651    1.739009
     12          1           0       -0.203092    1.559366   -1.427045
     13          6           0        2.427161   -0.707380   -0.211668
     14          1           0        2.808133   -1.694974   -0.477587
     15          1           0        2.930115   -0.376348    0.704964
     16          1           0        2.678169   -0.007193   -1.014053
 ---------------------------------------------------------------------

 SCF Done:  E(RPBE1PBE) =  -560.060576484     A.U. after   12 cycles

 The electronic state is 1-A.
 Alpha  occ. eigenvalues --  -66.24937 -19.20447 -19.19851 -10.26391 -10.21700
 Alpha  occ. eigenvalues --  -10.20719  -5.32696  -3.66223  -3.66109  -3.65963
 Alpha  occ. eigenvalues --   -1.04714  -1.02734  -0.78134  -0.70443  -0.63995
 Alpha  occ. eigenvalues --   -0.57193  -0.51276  -0.46784  -0.46573  -0.45983
 Alpha  occ. eigenvalues --   -0.43517  -0.40827  -0.39525  -0.37175  -0.36875
 Alpha  occ. eigenvalues --   -0.35834  -0.31829  -0.30359  -0.29554
 Alpha virt. eigenvalues --    0.02284   0.05664   0.06114   0.08077   0.09001
 Alpha virt. eigenvalues --    0.10233   0.10943   0.11529   0.12346   0.13515
 Alpha virt. eigenvalues --    0.14238   0.15277   0.16211   0.16698   0.19364

 Mulliken atomic charges:
              1
     1  H    0.130249
     2  C   -0.394244
     3  C   -0.308759
     4  H    0.104333
     5  H    0.142754
     6  H    0.120512
     7  Si   0.531025
     8  H    0.117278
     9  O   -0.508394
    10  O   -0.341078
    11  H   -0.067133
    12  H    0.320100
    13  C   -0.211053
    14  H    0.128599
    15  H    0.117520
    16  H    0.118290
 Sum of Mulliken atomic charges =   0.00000

 Dipole moment (field-independent basis, Debye):
    X=             -0.2791    Y=             -0.4773    Z=             -0.9770  Tot=              1.1226
 Quadrupole moment (field-independent basis, Debye-Ang):
   XX=            -41.2719   YY=            -49.0778   ZZ=            -42.8656
   XY=             -1.6203   XZ=             -0.1934   YZ=             -1.7505

 Normal termination of Gaussian 09 at Fri Aug 10 03:36:45 2018.
