 Gaussian 09, Revision C.01,
 Gaussian 09:  EM64L-G09RevC.01 23-Sep-2011

 --------------------------------------
 #SP PBE1PBE/Def2TZVP geom=connectivity
 --------------------------------------

 99/5=1,9=1/99;
 --------------
 Structure: 163
 --------------
 Charge =  0 Multiplicity = 1

                         Standard orientation:
 ---------------------------------------------------------------------
 Center     Atomic      Atomic             Coordinates (Angstroms)
 Number     Number       Type             X           Y           Z
 ---------------------------------------------------------------------
      1          1           0       -3.230221   -1.200487   -0.480502
      2          6           0       -2.235133   -0.778652   -0.643303
      3          6           0       -1.621698   -0.266813    0.659312
      4          1           0       -2.347224    0.022960   -1.379623
      5          1           0       -1.615133   -1.557521   -1.094050
      6          1           0       -2.258132    0.506709    1.103178
      7         14           0        0.090854    0.438317    0.479918
      8          1           0       -1.567947   -1.076003    1.395377
      9          8           0        0.151583    1.704380   -0.541129
     10          8           0        1.033758   -0.805000   -0.033077
     11          1           0        0.629702    0.993590    1.748017
     12          1           0       -0.202223    1.579251   -1.423345
     13          6           0        2.426947   -0.707968   -0.215454
     14          1           0        2.807736   -1.693596   -0.488824
     15          1           0        2.929881   -0.384011    0.703714
     16          1           0        2.678184   -0.001763   -1.012476
 ---------------------------------------------------------------------

 SCF Done:  E(RPBE1PBE) =  -560.061056738     A.U. after   12 cycles

 The electronic state is 1-A.
 Alpha  occ. eigenvalues --  -66.25116 -19.20377 -19.19917 -10.26415 -10.21713
 Alpha  occ. eigenvalues --  -10.20777  -5.32834  -3.66360  -3.66248  -3.66102
 Alpha  occ. eigenvalues --   -1.04566  -1.02570  -0.78164  -0.70474  -0.64018
 Alpha  occ. eigenvalues --   -0.56977  -0.51239  -0.46808  -0.46592  -0.45980
 Alpha  occ. eigenvalues --   -0.43536  -0.40872  -0.39342  -0.37193  -0.36742
 Alpha  occ. eigenvalues --   -0.35784  -0.31852  -0.30394  -0.29607
 Alpha virt. eigenvalues --    0.02284   0.05618   0.06085   0.08053   0.08987
 Alpha virt. eigenvalues --    0.10210   0.10910   0.11485   0.12331   0.13507
 Alpha virt. eigenvalues --    0.14164   0.15261   0.16161   0.16637   0.19336

 Mulliken atomic charges:
              1
     1  H    0.130236
     2  C   -0.393960
     3  C   -0.307493
     4  H    0.104756
     5  H    0.142648
     6  H    0.120815
     7  Si   0.534235
     8  H    0.117509
     9  O   -0.516327
    10  O   -0.340324
    11  H   -0.065703
    12  H    0.319677
    13  C   -0.211132
    14  H    0.128663
    15  H    0.117540
    16  H    0.118859
 Sum of Mulliken atomic charges =   0.00000

 Dipole moment (field-independent basis, Debye):
    X=             -0.2805    Y=             -0.5175    Z=             -0.9445  Tot=              1.1129
 Quadrupole moment (field-independent basis, Debye-Ang):
   XX=            -41.2353   YY=            -49.1603   ZZ=            -42.8602
   XY=             -1.6320   XZ=             -0.1970   YZ=             -1.7538

 Normal termination of Gaussian 09 at Fri Aug 10 04:21:51 2018.
