 Gaussian 09, Revision C.01,
 Gaussian 09:  EM64L-G09RevC.01 23-Sep-2011

 --------------------------------------
 #SP PBE1PBE/Def2TZVP geom=connectivity
 --------------------------------------

 99/5=1,9=1/99;
 --------------
 Structure: 123
 --------------
 Charge =  0 Multiplicity = 1

                         Standard orientation:
 ---------------------------------------------------------------------
 Center     Atomic      Atomic             Coordinates (Angstroms)
 Number     Number       Type             X           Y           Z
 ---------------------------------------------------------------------
      1          1           0       -3.228745   -1.215097   -0.432284
      2          6           0       -2.234216   -0.799938   -0.614503
      3          6           0       -1.620632   -0.229325    0.663386
      4          1           0       -2.347603   -0.032400   -1.386088
      5          1           0       -1.613600   -1.597631   -1.030111
      6          1           0       -2.257680    0.562700    1.072371
      7         14           0        0.091036    0.468874    0.451410
      8          1           0       -1.565576   -1.004508    1.435092
      9          8           0        0.147187    1.627812   -0.572518
     10          8           0        1.035038   -0.795248   -0.005674
     11          1           0        0.629967    1.081243    1.692909
     12          1           0       -0.206967    1.462720   -1.447995
     13          6           0        2.428018   -0.705011   -0.193070
     14          1           0        2.809751   -1.701531   -0.422033
     15          1           0        2.931098   -0.339467    0.710284
     16          1           0        2.678031   -0.035122   -1.021220
 ---------------------------------------------------------------------

 SCF Done:  E(RPBE1PBE) =  -560.054233135     A.U. after   12 cycles

 The electronic state is 1-A.
 Alpha  occ. eigenvalues --  -66.24025 -19.20791 -19.19536 -10.26281 -10.21642
 Alpha  occ. eigenvalues --  -10.20439  -5.32021  -3.65560  -3.65420  -3.65268
 Alpha  occ. eigenvalues --   -1.05886  -1.03000  -0.77995  -0.70296  -0.63891
 Alpha  occ. eigenvalues --   -0.58214  -0.51374  -0.46698  -0.46499  -0.46009
 Alpha  occ. eigenvalues --   -0.43440  -0.40668  -0.40372  -0.37825  -0.36953
 Alpha  occ. eigenvalues --   -0.35879  -0.31678  -0.30185  -0.29284
 Alpha virt. eigenvalues --    0.02207   0.05856   0.06245   0.08193   0.09043
 Alpha virt. eigenvalues --    0.10331   0.11086   0.11718   0.12416   0.13535
 Alpha virt. eigenvalues --    0.14590   0.15338   0.16430   0.16981   0.19490

 Mulliken atomic charges:
              1
     1  H    0.130339
     2  C   -0.395726
     3  C   -0.315164
     4  H    0.102280
     5  H    0.143275
     6  H    0.119061
     7  Si   0.513513
     8  H    0.116188
     9  O   -0.468464
    10  O   -0.345136
    11  H   -0.074219
    12  H    0.323524
    13  C   -0.210779
    14  H    0.128310
    15  H    0.117471
    16  H    0.115527
 Sum of Mulliken atomic charges =   0.00000

 Dipole moment (field-independent basis, Debye):
    X=             -0.2726    Y=             -0.2992    Z=             -1.1472  Tot=              1.2165
 Quadrupole moment (field-independent basis, Debye-Ang):
   XX=            -41.4515   YY=            -48.7171   ZZ=            -42.8691
   XY=             -1.5680   XZ=             -0.1775   YZ=             -1.7547

 Normal termination of Gaussian 09 at Fri Aug 10 00:03:03 2018.
