 Gaussian 09, Revision C.01,
 Gaussian 09:  EM64L-G09RevC.01 23-Sep-2011

 --------------------------------------
 #SP PBE1PBE/Def2TZVP geom=connectivity
 --------------------------------------

 99/5=1,9=1/99;
 --------------
 Structure: 174
 --------------
 Charge =  0 Multiplicity = 1

                         Standard orientation:
 ---------------------------------------------------------------------
 Center     Atomic      Atomic             Coordinates (Angstroms)
 Number     Number       Type             X           Y           Z
 ---------------------------------------------------------------------
      1          1           0       -3.230576   -1.196433   -0.493001
      2          6           0       -2.235344   -0.772993   -0.650670
      3          6           0       -1.621962   -0.276721    0.657979
      4          1           0       -2.347095    0.037276   -1.377506
      5          1           0       -1.615496   -1.546671   -1.110475
      6          1           0       -2.258244    0.491697    1.110838
      7         14           0        0.090817    0.429986    0.487165
      8          1           0       -1.568552   -1.094547    1.384462
      9          8           0        0.152619    1.724821   -0.532518
     10          8           0        1.033447   -0.807465   -0.040311
     11          1           0        0.629630    0.970118    1.761802
     12          1           0       -0.201017    1.610398   -1.415222
     13          6           0        2.426692   -0.708688   -0.221324
     14          1           0        2.807242   -1.691134   -0.506238
     15          1           0        2.929577   -0.395732    0.701674
     16          1           0        2.678250    0.006792   -1.009928
 ---------------------------------------------------------------------

 SCF Done:  E(RPBE1PBE) =  -560.061317216     A.U. after   12 cycles

 The electronic state is 1-A.
 Alpha  occ. eigenvalues --  -66.25390 -19.20240 -19.20021 -10.26452 -10.21733
 Alpha  occ. eigenvalues --  -10.20867  -5.33049  -3.66575  -3.66465  -3.66320
 Alpha  occ. eigenvalues --   -1.04435  -1.02281  -0.78211  -0.70524  -0.64057
 Alpha  occ. eigenvalues --   -0.56694  -0.51180  -0.46848  -0.46624  -0.45981
 Alpha  occ. eigenvalues --   -0.43567  -0.40949  -0.39069  -0.37229  -0.36584
 Alpha  occ. eigenvalues --   -0.35661  -0.31885  -0.30446  -0.29690
 Alpha virt. eigenvalues --    0.02301   0.05546   0.06040   0.08014   0.08974
 Alpha virt. eigenvalues --    0.10174   0.10854   0.11411   0.12306   0.13495
 Alpha virt. eigenvalues --    0.14048   0.15237   0.16088   0.16549   0.19294

 Mulliken atomic charges:
              1
     1  H    0.130217
     2  C   -0.393496
     3  C   -0.305645
     4  H    0.105450
     5  H    0.142484
     6  H    0.121288
     7  Si   0.538975
     8  H    0.117873
     9  O   -0.527774
    10  O   -0.339195
    11  H   -0.063506
    12  H    0.318522
    13  C   -0.211294
    14  H    0.128768
    15  H    0.117567
    16  H    0.119767
 Sum of Mulliken atomic charges =   0.00000

 Dipole moment (field-independent basis, Debye):
    X=             -0.2826    Y=             -0.5811    Z=             -0.8912  Tot=              1.1008
 Quadrupole moment (field-independent basis, Debye-Ang):
   XX=            -41.1739   YY=            -49.2863   ZZ=            -42.8582
   XY=             -1.6499   XZ=             -0.2026   YZ=             -1.7552

 Normal termination of Gaussian 09 at Fri Aug 10 05:32:34 2018.
