 Gaussian 09, Revision C.01,
 Gaussian 09:  EM64L-G09RevC.01 23-Sep-2011

 --------------------------------------
 #SP PBE1PBE/Def2TZVP geom=connectivity
 --------------------------------------

 99/5=1,9=1/99;
 --------------
 Structure: 110
 --------------
 Charge =  0 Multiplicity = 1

                         Standard orientation:
 ---------------------------------------------------------------------
 Center     Atomic      Atomic             Coordinates (Angstroms)
 Number     Number       Type             X           Y           Z
 ---------------------------------------------------------------------
      1          1           0       -3.228198   -1.219565   -0.416378
      2          6           0       -2.233861   -0.806753   -0.604870
      3          6           0       -1.620240   -0.217227    0.664387
      4          1           0       -2.347689   -0.050659   -1.387608
      5          1           0       -1.613027   -1.610226   -1.008857
      6          1           0       -2.257505    0.580474    1.061839
      7         14           0        0.091124    0.478425    0.441844
      8          1           0       -1.564740   -0.980985    1.447371
      9          8           0        0.145600    1.603264   -0.582226
     10          8           0        1.035511   -0.791913    0.003163
     11          1           0        0.630070    1.109142    1.674117
     12          1           0       -0.209502    1.425102   -1.453982
     13          6           0        2.428420   -0.703916   -0.185820
     14          1           0        2.810482   -1.703544   -0.400217
     15          1           0        2.931541   -0.324972    0.711973
     16          1           0        2.678018   -0.046154   -1.023758
 ---------------------------------------------------------------------

 SCF Done:  E(RPBE1PBE) =  -560.049673622     A.U. after   12 cycles

 The electronic state is 1-A.
 Alpha  occ. eigenvalues --  -66.23653 -19.20894 -19.19416 -10.26240 -10.21622
 Alpha  occ. eigenvalues --  -10.20333  -5.31760  -3.65310  -3.65150  -3.64996
 Alpha  occ. eigenvalues --   -1.06500  -1.02991  -0.77945  -0.70241  -0.63860
 Alpha  occ. eigenvalues --   -0.58645  -0.51396  -0.46684  -0.46483  -0.46026
 Alpha  occ. eigenvalues --   -0.43419  -0.40847  -0.40482  -0.38212  -0.36879
 Alpha  occ. eigenvalues --   -0.35861  -0.31610  -0.30115  -0.29179
 Alpha virt. eigenvalues --    0.02176   0.05919   0.06296   0.08235   0.09062
 Alpha virt. eigenvalues --    0.10365   0.11134   0.11779   0.12439   0.13539
 Alpha virt. eigenvalues --    0.14716   0.15363   0.16513   0.17092   0.19536

 Mulliken atomic charges:
              1
     1  H    0.130388
     2  C   -0.396313
     3  C   -0.317888
     4  H    0.101508
     5  H    0.143500
     6  H    0.118515
     7  Si   0.506007
     8  H    0.115789
     9  O   -0.451655
    10  O   -0.346905
    11  H   -0.077036
    12  H    0.324678
    13  C   -0.210756
    14  H    0.128207
    15  H    0.117457
    16  H    0.114505
 Sum of Mulliken atomic charges =   0.00000

 Dipole moment (field-independent basis, Debye):
    X=             -0.2715    Y=             -0.2367    Z=             -1.2123  Tot=              1.2647
 Quadrupole moment (field-independent basis, Debye-Ang):
   XX=            -41.5151   YY=            -48.5865   ZZ=            -42.8734
   XY=             -1.5495   XZ=             -0.1693   YZ=             -1.7553

 Normal termination of Gaussian 09 at Thu Aug  9 22:38:06 2018.
