 Gaussian 09, Revision C.01,
 Gaussian 09:  EM64L-G09RevC.01 23-Sep-2011

 --------------------------------------
 #SP PBE1PBE/Def2TZVP geom=connectivity
 --------------------------------------

 99/5=1,9=1/99;
 --------------
 Structure: 192
 --------------
 Charge =  0 Multiplicity = 1

                         Standard orientation:
 ---------------------------------------------------------------------
 Center     Atomic      Atomic             Coordinates (Angstroms)
 Number     Number       Type             X           Y           Z
 ---------------------------------------------------------------------
      1          1           0       -3.231434   -1.189253   -0.513497
      2          6           0       -2.235895   -0.763468   -0.662688
      3          6           0       -1.622571   -0.292959    0.655469
      4          1           0       -2.346940    0.060763   -1.373762
      5          1           0       -1.616399   -1.528506   -1.137191
      6          1           0       -2.258502    0.466963    1.122921
      7         14           0        0.090695    0.415844    0.498800
      8          1           0       -1.569872   -1.124702    1.366029
      9          8           0        0.155226    1.759712   -0.517417
     10          8           0        1.032703   -0.811774   -0.052235
     11          1           0        0.629487    0.930909    1.783780
     12          1           0       -0.198306    1.662410   -1.403243
     13          6           0        2.426059   -0.710391   -0.230934
     14          1           0        2.806079   -1.687386   -0.534676
     15          1           0        2.928881   -0.415642    0.698073
     16          1           0        2.678282    0.020036   -1.005499
 ---------------------------------------------------------------------

 SCF Done:  E(RPBE1PBE) =  -560.060565050     A.U. after   12 cycles

 The electronic state is 1-A.
 Alpha  occ. eigenvalues --  -66.25832 -19.20197 -19.20021 -10.26517 -10.21769
 Alpha  occ. eigenvalues --  -10.21020  -5.33404  -3.66929  -3.66823  -3.66677
 Alpha  occ. eigenvalues --   -1.04357  -1.01622  -0.78291  -0.70608  -0.64126
 Alpha  occ. eigenvalues --   -0.56223  -0.51033  -0.46919  -0.46682  -0.45988
 Alpha  occ. eigenvalues --   -0.43621  -0.41076  -0.38649  -0.37258  -0.36453
 Alpha  occ. eigenvalues --   -0.35335  -0.31916  -0.30529  -0.29821
 Alpha virt. eigenvalues --    0.02293   0.05414   0.05960   0.07948   0.08941
 Alpha virt. eigenvalues --    0.10106   0.10749   0.11281   0.12262   0.13462
 Alpha virt. eigenvalues --    0.13862   0.15189   0.15949   0.16401   0.19218

 Mulliken atomic charges:
              1
     1  H    0.130196
     2  C   -0.392752
     3  C   -0.302646
     4  H    0.106616
     5  H    0.142217
     6  H    0.122096
     7  Si   0.545983
     8  H    0.118506
     9  O   -0.546331
    10  O   -0.337414
    11  H   -0.059909
    12  H    0.317165
    13  C   -0.211584
    14  H    0.128952
    15  H    0.117632
    16  H    0.121274
 Sum of Mulliken atomic charges =   0.00000

 Dipole moment (field-independent basis, Debye):
    X=             -0.2870    Y=             -0.6942    Z=             -0.8079  Tot=              1.1032
 Quadrupole moment (field-independent basis, Debye-Ang):
   XX=            -41.0731   YY=            -49.5133   ZZ=            -42.8460
   XY=             -1.6831   XZ=             -0.2134   YZ=             -1.7669

 Normal termination of Gaussian 09 at Fri Aug 10 01:04:01 2018.
