 Gaussian 09, Revision C.01,
 Gaussian 09:  EM64L-G09RevC.01 23-Sep-2011

 --------------------------------------
 #SP PBE1PBE/Def2TZVP geom=connectivity
 --------------------------------------

 99/5=1,9=1/99;
 --------------
 Structure: 116
 --------------
 Charge =  0 Multiplicity = 1

                         Standard orientation:
 ---------------------------------------------------------------------
 Center     Atomic      Atomic             Coordinates (Angstroms)
 Number     Number       Type             X           Y           Z
 ---------------------------------------------------------------------
      1          1           0       -3.228471   -1.217519   -0.423642
      2          6           0       -2.234041   -0.803640   -0.609280
      3          6           0       -1.620441   -0.222695    0.663938
      4          1           0       -2.347653   -0.042327   -1.386974
      5          1           0       -1.613311   -1.604516   -1.018550
      6          1           0       -2.257601    0.572457    1.066631
      7         14           0        0.091071    0.474114    0.446204
      8          1           0       -1.565158   -0.991662    1.441821
      9          8           0        0.146364    1.614335   -0.577885
     10          8           0        1.035273   -0.793444   -0.000837
     11          1           0        0.630007    1.096509    1.682705
     12          1           0       -0.207772    1.442429   -1.451014
     13          6           0        2.428217   -0.704443   -0.189091
     14          1           0        2.810119   -1.702690   -0.410105
     15          1           0        2.931315   -0.331580    0.711256
     16          1           0        2.678017   -0.041158   -1.022604
 ---------------------------------------------------------------------

 SCF Done:  E(RPBE1PBE) =  -560.051902807     A.U. after   12 cycles

 The electronic state is 1-A.
 Alpha  occ. eigenvalues --  -66.23823 -19.20844 -19.19470 -10.26258 -10.21630
 Alpha  occ. eigenvalues --  -10.20381  -5.31879  -3.65423  -3.65273  -3.65120
 Alpha  occ. eigenvalues --   -1.06226  -1.03001  -0.77967  -0.70266  -0.63874
 Alpha  occ. eigenvalues --   -0.58461  -0.51388  -0.46689  -0.46489  -0.46018
 Alpha  occ. eigenvalues --   -0.43428  -0.40732  -0.40466  -0.38038  -0.36913
 Alpha  occ. eigenvalues --   -0.35870  -0.31642  -0.30147  -0.29227
 Alpha virt. eigenvalues --    0.02197   0.05892   0.06274   0.08216   0.09055
 Alpha virt. eigenvalues --    0.10350   0.11113   0.11752   0.12429   0.13539
 Alpha virt. eigenvalues --    0.14660   0.15353   0.16476   0.17042   0.19515

 Mulliken atomic charges:
              1
     1  H    0.130361
     2  C   -0.396039
     3  C   -0.316639
     4  H    0.101874
     5  H    0.143389
     6  H    0.118758
     7  Si   0.509487
     8  H    0.115967
     9  O   -0.459234
    10  O   -0.346094
    11  H   -0.075765
    12  H    0.324020
    13  C   -0.210762
    14  H    0.128255
    15  H    0.117463
    16  H    0.114959
 Sum of Mulliken atomic charges =   0.00000

 Dipole moment (field-independent basis, Debye):
    X=             -0.2714    Y=             -0.2641    Z=             -1.1826  Tot=              1.2417
 Quadrupole moment (field-independent basis, Debye-Ang):
   XX=            -41.4866   YY=            -48.6430   ZZ=            -42.8721
   XY=             -1.5573   XZ=             -0.1744   YZ=             -1.7554

 Normal termination of Gaussian 09 at Thu Aug  9 23:17:21 2018.
