 Gaussian 09, Revision C.01,
 Gaussian 09:  EM64L-G09RevC.01 23-Sep-2011

 --------------------------------------
 #SP PBE1PBE/Def2TZVP geom=connectivity
 --------------------------------------

 99/5=1,9=1/99;
 --------------
 Structure: 113
 --------------
 Charge =  0 Multiplicity = 1

                         Standard orientation:
 ---------------------------------------------------------------------
 Center     Atomic      Atomic             Coordinates (Angstroms)
 Number     Number       Type             X           Y           Z
 ---------------------------------------------------------------------
      1          1           0       -3.228153   -1.218933   -0.419819
      2          6           0       -2.233811   -0.805520   -0.606965
      3          6           0       -1.620209   -0.220085    0.664194
      4          1           0       -2.347623   -0.046909   -1.387266
      5          1           0       -1.612974   -1.607691   -1.013526
      6          1           0       -2.257477    0.576335    1.064200
      7         14           0        0.091162    0.476273    0.443919
      8          1           0       -1.564725   -0.986360    1.444715
      9          8           0        0.145290    1.609073   -0.579849
     10          8           0        1.035551   -0.792650    0.001166
     11          1           0        0.630089    1.103018    1.678225
     12          1           0       -0.208961    1.433836   -1.453313
     13          6           0        2.428463   -0.704050   -0.187510
     14          1           0        2.810525   -1.702985   -0.405117
     15          1           0        2.931571   -0.328000    0.711506
     16          1           0        2.678077   -0.043595   -1.023322
 ---------------------------------------------------------------------

 SCF Done:  E(RPBE1PBE) =  -560.050817322     A.U. after   12 cycles

 The electronic state is 1-A.
 Alpha  occ. eigenvalues --  -66.23737 -19.20876 -19.19446 -10.26251 -10.21625
 Alpha  occ. eigenvalues --  -10.20354  -5.31818  -3.65365  -3.65211  -3.65056
 Alpha  occ. eigenvalues --   -1.06347  -1.02997  -0.77954  -0.70255  -0.63864
 Alpha  occ. eigenvalues --   -0.58540  -0.51392  -0.46687  -0.46486  -0.46019
 Alpha  occ. eigenvalues --   -0.43423  -0.40782  -0.40475  -0.38124  -0.36895
 Alpha  occ. eigenvalues --   -0.35864  -0.31628  -0.30132  -0.29201
 Alpha virt. eigenvalues --    0.02178   0.05905   0.06283   0.08227   0.09056
 Alpha virt. eigenvalues --    0.10357   0.11125   0.11766   0.12434   0.13538
 Alpha virt. eigenvalues --    0.14688   0.15356   0.16496   0.17065   0.19526

 Mulliken atomic charges:
              1
     1  H    0.130369
     2  C   -0.396192
     3  C   -0.317228
     4  H    0.101670
     5  H    0.143431
     6  H    0.118625
     7  Si   0.507800
     8  H    0.115848
     9  O   -0.455638
    10  O   -0.346491
    11  H   -0.076404
    12  H    0.324547
    13  C   -0.210772
    14  H    0.128238
    15  H    0.117476
    16  H    0.114722
 Sum of Mulliken atomic charges =   0.00000

 Dipole moment (field-independent basis, Debye):
    X=             -0.2692    Y=             -0.2505    Z=             -1.1996  Tot=              1.2547
 Quadrupole moment (field-independent basis, Debye-Ang):
   XX=            -41.5018   YY=            -48.6171   ZZ=            -42.8693
   XY=             -1.5520   XZ=             -0.1722   YZ=             -1.7581

 Normal termination of Gaussian 09 at Thu Aug  9 22:57:42 2018.
