 Gaussian 09, Revision C.01,
 Gaussian 09:  EM64L-G09RevC.01 23-Sep-2011

 --------------------------------------
 #SP PBE1PBE/Def2TZVP geom=connectivity
 --------------------------------------

 99/5=1,9=1/99;
 --------------
 Structure: 139
 --------------
 Charge =  0 Multiplicity = 1

                         Standard orientation:
 ---------------------------------------------------------------------
 Center     Atomic      Atomic             Coordinates (Angstroms)
 Number     Number       Type             X           Y           Z
 ---------------------------------------------------------------------
      1          1           0       -3.229148   -1.209543   -0.451943
      2          6           0       -2.234440   -0.791442   -0.626291
      3          6           0       -1.620938   -0.244632    0.662001
      4          1           0       -2.347404   -0.009808   -1.383656
      5          1           0       -1.614004   -1.581571   -1.056368
      6          1           0       -2.257806    0.539956    1.085348
      7         14           0        0.091011    0.456763    0.463253
      8          1           0       -1.566308   -1.033892    1.419335
      9          8           0        0.148320    1.658132   -0.560425
     10          8           0        1.034685   -0.799062   -0.016801
     11          1           0        0.629883    1.046017    1.715914
     12          1           0       -0.205630    1.509519   -1.437894
     13          6           0        2.427735   -0.705870   -0.202217
     14          1           0        2.809181   -1.698140   -0.449385
     15          1           0        2.930745   -0.357169    0.707810
     16          1           0        2.678150   -0.020951   -1.017858
 ---------------------------------------------------------------------

 SCF Done:  E(RPBE1PBE) =  -560.058200143     A.U. after   12 cycles

 The electronic state is 1-A.
 Alpha  occ. eigenvalues --  -66.24477 -19.20629 -19.19687 -10.26333 -10.21668
 Alpha  occ. eigenvalues --  -10.20573  -5.32350  -3.65881  -3.65757  -3.65608
 Alpha  occ. eigenvalues --   -1.05238  -1.02949  -0.78061  -0.70366  -0.63938
 Alpha  occ. eigenvalues --   -0.57719  -0.51338  -0.46733  -0.46530  -0.45993
 Alpha  occ. eigenvalues --   -0.43474  -0.40722  -0.39979  -0.37371  -0.37032
 Alpha  occ. eigenvalues --   -0.35883  -0.31757  -0.30269  -0.29417
 Alpha virt. eigenvalues --    0.02256   0.05767   0.06183   0.08138   0.09025
 Alpha virt. eigenvalues --    0.10286   0.11021   0.11631   0.12383   0.13529
 Alpha virt. eigenvalues --    0.14420   0.15310   0.16327   0.16850   0.19431

 Mulliken atomic charges:
              1
     1  H    0.130288
     2  C   -0.394998
     3  C   -0.311974
     4  H    0.103256
     5  H    0.143017
     6  H    0.119750
     7  Si   0.522405
     8  H    0.116691
     9  O   -0.488293
    10  O   -0.343073
    11  H   -0.070712
    12  H    0.321741
    13  C   -0.210893
    14  H    0.128445
    15  H    0.117483
    16  H    0.116865
 Sum of Mulliken atomic charges =   0.00000

 Dipole moment (field-independent basis, Debye):
    X=             -0.2749    Y=             -0.3817    Z=             -1.0626  Tot=              1.1620
 Quadrupole moment (field-independent basis, Debye-Ang):
   XX=            -41.3652   YY=            -48.8845   ZZ=            -42.8694
   XY=             -1.5913   XZ=             -0.1839   YZ=             -1.7494

 Normal termination of Gaussian 09 at Fri Aug 10 01:47:05 2018.
