 Gaussian 09, Revision C.01,
 Gaussian 09:  EM64L-G09RevC.01 23-Sep-2011

 --------------------------------------
 #SP PBE1PBE/Def2TZVP geom=connectivity
 --------------------------------------

 99/5=1,9=1/99;
 --------------
 Structure: 176
 --------------
 Charge =  0 Multiplicity = 1

                         Standard orientation:
 ---------------------------------------------------------------------
 Center     Atomic      Atomic             Coordinates (Angstroms)
 Number     Number       Type             X           Y           Z
 ---------------------------------------------------------------------
      1          1           0       -3.230760   -1.195425   -0.495441
      2          6           0       -2.235472   -0.771742   -0.652104
      3          6           0       -1.622095   -0.278505    0.657694
      4          1           0       -2.347098    0.040183   -1.377109
      5          1           0       -1.615691   -1.544448   -1.113632
      6          1           0       -2.258310    0.488957    1.112262
      7         14           0        0.090773    0.428392    0.488559
      8          1           0       -1.568812   -1.097980    1.382325
      9          8           0        0.153226    1.728617   -0.530876
     10          8           0        1.033286   -0.807969   -0.041674
     11          1           0        0.629588    0.965574    1.764441
     12          1           0       -0.200382    1.616233   -1.413853
     13          6           0        2.426550   -0.708941   -0.222399
     14          1           0        2.807002   -1.690782   -0.509520
     15          1           0        2.929428   -0.398134    0.701328
     16          1           0        2.678226    0.008294   -1.009370
 ---------------------------------------------------------------------

 SCF Done:  E(RPBE1PBE) =  -560.061304074     A.U. after   12 cycles

 The electronic state is 1-A.
 Alpha  occ. eigenvalues --  -66.25441 -19.20215 -19.20039 -10.26459 -10.21737
 Alpha  occ. eigenvalues --  -10.20885  -5.33089  -3.66615  -3.66506  -3.66361
 Alpha  occ. eigenvalues --   -1.04418  -1.02215  -0.78220  -0.70532  -0.64065
 Alpha  occ. eigenvalues --   -0.56639  -0.51166  -0.46855  -0.46630  -0.45982
 Alpha  occ. eigenvalues --   -0.43572  -0.40964  -0.39019  -0.37236  -0.36561
 Alpha  occ. eigenvalues --   -0.35631  -0.31889  -0.30455  -0.29705
 Alpha virt. eigenvalues --    0.02302   0.05531   0.06032   0.08006   0.08971
 Alpha virt. eigenvalues --    0.10167   0.10843   0.11397   0.12302   0.13492
 Alpha virt. eigenvalues --    0.14027   0.15232   0.16072   0.16532   0.19285

 Mulliken atomic charges:
              1
     1  H    0.130215
     2  C   -0.393412
     3  C   -0.305300
     4  H    0.105586
     5  H    0.142457
     6  H    0.121378
     7  Si   0.539812
     8  H    0.117951
     9  O   -0.529919
    10  O   -0.338993
    11  H   -0.063093
    12  H    0.318348
    13  C   -0.211315
    14  H    0.128784
    15  H    0.117567
    16  H    0.119934
 Sum of Mulliken atomic charges =   0.00000

 Dipole moment (field-independent basis, Debye):
    X=             -0.2837    Y=             -0.5932    Z=             -0.8813  Tot=              1.0996
 Quadrupole moment (field-independent basis, Debye-Ang):
   XX=            -41.1632   YY=            -49.3101   ZZ=            -42.8570
   XY=             -1.6540   XZ=             -0.2040   YZ=             -1.7560

 Normal termination of Gaussian 09 at Fri Aug 10 05:45:28 2018.
