 Gaussian 09, Revision C.01,
 Gaussian 09:  EM64L-G09RevC.01 23-Sep-2011

 --------------------------------------
 #SP PBE1PBE/Def2TZVP geom=connectivity
 --------------------------------------

 99/5=1,9=1/99;
 --------------
 Structure: 193
 --------------
 Charge =  0 Multiplicity = 1

                         Standard orientation:
 ---------------------------------------------------------------------
 Center     Atomic      Atomic             Coordinates (Angstroms)
 Number     Number       Type             X           Y           Z
 ---------------------------------------------------------------------
      1          1           0       -3.231563   -1.188725   -0.514455
      2          6           0       -2.235989   -0.762882   -0.663244
      3          6           0       -1.622661   -0.293589    0.655345
      4          1           0       -2.346955    0.061988   -1.373589
      5          1           0       -1.616539   -1.527544   -1.138412
      6          1           0       -2.258547    0.465965    1.123457
      7         14           0        0.090661    0.415224    0.499346
      8          1           0       -1.570041   -1.125967    1.365167
      9          8           0        0.155751    1.761107   -0.516926
     10          8           0        1.032591   -0.811975   -0.052757
     11          1           0        0.629461    0.929108    1.784795
     12          1           0       -0.198607    1.664405   -1.401729
     13          6           0        2.425959   -0.710536   -0.231332
     14          1           0        2.805913   -1.687290   -0.535933
     15          1           0        2.928780   -0.416651    0.697948
     16          1           0        2.678255    0.020559   -1.005243
 ---------------------------------------------------------------------

 SCF Done:  E(RPBE1PBE) =  -560.060500728     A.U. after   12 cycles

 The electronic state is 1-A.
 Alpha  occ. eigenvalues --  -66.25852 -19.20204 -19.20005 -10.26519 -10.21773
 Alpha  occ. eigenvalues --  -10.21030  -5.33420  -3.66945  -3.66840  -3.66694
 Alpha  occ. eigenvalues --   -1.04358  -1.01607  -0.78297  -0.70612  -0.64131
 Alpha  occ. eigenvalues --   -0.56210  -0.51028  -0.46922  -0.46684  -0.45991
 Alpha  occ. eigenvalues --   -0.43625  -0.41084  -0.38637  -0.37260  -0.36453
 Alpha  occ. eigenvalues --   -0.35320  -0.31916  -0.30533  -0.29828
 Alpha virt. eigenvalues --    0.02298   0.05409   0.05957   0.07945   0.08943
 Alpha virt. eigenvalues --    0.10102   0.10742   0.11275   0.12260   0.13460
 Alpha virt. eigenvalues --    0.13854   0.15188   0.15945   0.16395   0.19216

 Mulliken atomic charges:
              1
     1  H    0.130203
     2  C   -0.392701
     3  C   -0.302573
     4  H    0.106667
     5  H    0.142223
     6  H    0.122147
     7  Si   0.546192
     8  H    0.118557
     9  O   -0.546902
    10  O   -0.337340
    11  H   -0.059759
    12  H    0.316936
    13  C   -0.211595
    14  H    0.128955
    15  H    0.117626
    16  H    0.121365
 Sum of Mulliken atomic charges =   0.00000

 Dipole moment (field-independent basis, Debye):
    X=             -0.2896    Y=             -0.6998    Z=             -0.8022  Tot=              1.1032
 Quadrupole moment (field-independent basis, Debye-Ang):
   XX=            -41.0664   YY=            -49.5231   ZZ=            -42.8499
   XY=             -1.6870   XZ=             -0.2121   YZ=             -1.7634

 Normal termination of Gaussian 09 at Fri Aug 10 01:10:26 2018.
