 Gaussian 09, Revision C.01,
 Gaussian 09:  EM64L-G09RevC.01 23-Sep-2011

 --------------------------------------
 #SP PBE1PBE/Def2TZVP geom=connectivity
 --------------------------------------

 99/5=1,9=1/99;
 --------------
 Structure: 185
 --------------
 Charge =  0 Multiplicity = 1

                         Standard orientation:
 ---------------------------------------------------------------------
 Center     Atomic      Atomic             Coordinates (Angstroms)
 Number     Number       Type             X           Y           Z
 ---------------------------------------------------------------------
      1          1           0       -3.231125   -1.191951   -0.505848
      2          6           0       -2.235698   -0.767031   -0.658218
      3          6           0       -1.622354   -0.286848    0.656437
      4          1           0       -2.347002    0.052004   -1.375231
      5          1           0       -1.616073   -1.535342   -1.127230
      6          1           0       -2.258414    0.476295    1.118436
      7         14           0        0.090734    0.421194    0.494468
      8          1           0       -1.569394   -1.113411    1.372996
      9          8           0        0.154297    1.746525   -0.523203
     10          8           0        1.032970   -0.810167   -0.047756
     11          1           0        0.629533    0.945675    1.775631
     12          1           0       -0.199228    1.642914   -1.407286
     13          6           0        2.426286   -0.709761   -0.227323
     14          1           0        2.806500   -1.688843   -0.524019
     15          1           0        2.929130   -0.408178    0.699476
     16          1           0        2.678265    0.015094   -1.007182
 ---------------------------------------------------------------------

 SCF Done:  E(RPBE1PBE) =  -560.061011210     A.U. after   12 cycles

 The electronic state is 1-A.
 Alpha  occ. eigenvalues --  -66.25669 -19.20131 -19.20100 -10.26492 -10.21756
 Alpha  occ. eigenvalues --  -10.20963  -5.33272  -3.66797  -3.66690  -3.66544
 Alpha  occ. eigenvalues --   -1.04371  -1.01896  -0.78261  -0.70576  -0.64100
 Alpha  occ. eigenvalues --   -0.56400  -0.51097  -0.46892  -0.46660  -0.45985
 Alpha  occ. eigenvalues --   -0.43601  -0.41029  -0.38801  -0.37255  -0.36487
 Alpha  occ. eigenvalues --   -0.35471  -0.31908  -0.30499  -0.29773
 Alpha virt. eigenvalues --    0.02303   0.05466   0.05991   0.07973   0.08956
 Alpha virt. eigenvalues --    0.10132   0.10790   0.11331   0.12279   0.13477
 Alpha virt. eigenvalues --    0.13931   0.15209   0.16004   0.16455   0.19247

 Mulliken atomic charges:
              1
     1  H    0.130203
     2  C   -0.393023
     3  C   -0.303768
     4  H    0.106184
     5  H    0.142317
     6  H    0.121794
     7  Si   0.543473
     8  H    0.118272
     9  O   -0.539386
    10  O   -0.338072
    11  H   -0.061261
    12  H    0.317540
    13  C   -0.211470
    14  H    0.128881
    15  H    0.117606
    16  H    0.120711
 Sum of Mulliken atomic charges =   0.00000

 Dipole moment (field-independent basis, Debye):
    X=             -0.2856    Y=             -0.6510    Z=             -0.8382  Tot=              1.0990
 Quadrupole moment (field-independent basis, Debye-Ang):
   XX=            -41.1103   YY=            -49.4256   ZZ=            -42.8527
   XY=             -1.6707   XZ=             -0.2095   YZ=             -1.7608

 Normal termination of Gaussian 09 at Fri Aug 10 00:19:25 2018.
