 Gaussian 09, Revision C.01,
 Gaussian 09:  EM64L-G09RevC.01 23-Sep-2011

 --------------------------------------
 #SP PBE1PBE/Def2TZVP geom=connectivity
 --------------------------------------

 99/5=1,9=1/99;
 --------------
 Structure: 177
 --------------
 Charge =  0 Multiplicity = 1

                         Standard orientation:
 ---------------------------------------------------------------------
 Center     Atomic      Atomic             Coordinates (Angstroms)
 Number     Number       Type             X           Y           Z
 ---------------------------------------------------------------------
      1          1           0       -3.230790   -1.195017   -0.496785
      2          6           0       -2.235488   -0.771162   -0.652896
      3          6           0       -1.622116   -0.279607    0.657536
      4          1           0       -2.347082    0.041687   -1.376869
      5          1           0       -1.615722   -1.543297   -1.115397
      6          1           0       -2.258316    0.487294    1.113072
      7         14           0        0.090774    0.427458    0.489324
      8          1           0       -1.568865   -1.100004    1.381126
      9          8           0        0.153302    1.730974   -0.529873
     10          8           0        1.033260   -0.808254   -0.042467
     11          1           0        0.629586    0.963003    1.765895
     12          1           0       -0.200297    1.619723   -1.412997
     13          6           0        2.426530   -0.709034   -0.223047
     14          1           0        2.806959   -1.690520   -0.511410
     15          1           0        2.929404   -0.399415    0.701082
     16          1           0        2.678236    0.009194   -1.009102
 ---------------------------------------------------------------------

 SCF Done:  E(RPBE1PBE) =  -560.061287338     A.U. after   12 cycles

 The electronic state is 1-A.
 Alpha  occ. eigenvalues --  -66.25471 -19.20201 -19.20051 -10.26463 -10.21740
 Alpha  occ. eigenvalues --  -10.20895  -5.33113  -3.66639  -3.66530  -3.66385
 Alpha  occ. eigenvalues --   -1.04409  -1.02176  -0.78225  -0.70538  -0.64070
 Alpha  occ. eigenvalues --   -0.56607  -0.51158  -0.46860  -0.46634  -0.45982
 Alpha  occ. eigenvalues --   -0.43576  -0.40972  -0.38990  -0.37239  -0.36549
 Alpha  occ. eigenvalues --   -0.35612  -0.31892  -0.30461  -0.29714
 Alpha virt. eigenvalues --    0.02303   0.05523   0.06027   0.08002   0.08969
 Alpha virt. eigenvalues --    0.10163   0.10836   0.11389   0.12299   0.13490
 Alpha virt. eigenvalues --    0.14014   0.15229   0.16064   0.16521   0.19280

 Mulliken atomic charges:
              1
     1  H    0.130213
     2  C   -0.393360
     3  C   -0.305097
     4  H    0.105662
     5  H    0.142438
     6  H    0.121432
     7  Si   0.540307
     8  H    0.117991
     9  O   -0.531173
    10  O   -0.338870
    11  H   -0.062854
    12  H    0.318240
    13  C   -0.211336
    14  H    0.128798
    15  H    0.117573
    16  H    0.120036
 Sum of Mulliken atomic charges =   0.00000

 Dipole moment (field-independent basis, Debye):
    X=             -0.2838    Y=             -0.6007    Z=             -0.8757  Tot=              1.0992
 Quadrupole moment (field-independent basis, Debye-Ang):
   XX=            -41.1562   YY=            -49.3252   ZZ=            -42.8565
   XY=             -1.6561   XZ=             -0.2047   YZ=             -1.7566

 Normal termination of Gaussian 09 at Fri Aug 10 05:51:46 2018.
