 Gaussian 09, Revision C.01,
 Gaussian 09:  EM64L-G09RevC.01 23-Sep-2011

 --------------------------------------
 #SP PBE1PBE/Def2TZVP geom=connectivity
 --------------------------------------

 99/5=1,9=1/99;
 --------------
 Structure: 133
 --------------
 Charge =  0 Multiplicity = 1

                         Standard orientation:
 ---------------------------------------------------------------------
 Center     Atomic      Atomic             Coordinates (Angstroms)
 Number     Number       Type             X           Y           Z
 ---------------------------------------------------------------------
      1          1           0       -3.228923   -1.211846   -0.444529
      2          6           0       -2.234300   -0.794800   -0.621862
      3          6           0       -1.620765   -0.238986    0.662557
      4          1           0       -2.347463   -0.018445   -1.384608
      5          1           0       -1.613775   -1.587784   -1.046519
      6          1           0       -2.257721    0.548410    1.080523
      7         14           0        0.091050    0.461296    0.458795
      8          1           0       -1.565934   -1.022976    1.425329
      9          8           0        0.147622    1.647061   -0.564840
     10          8           0        1.034884   -0.797667   -0.012646
     11          1           0        0.629944    1.059295    1.707295
     12          1           0       -0.206459    1.492081   -1.442193
     13          6           0        2.427902   -0.705533   -0.198837
     14          1           0        2.809486   -1.699429   -0.439167
     15          1           0        2.930941   -0.350460    0.708706
     16          1           0        2.678127   -0.026236   -1.019222
 ---------------------------------------------------------------------

 SCF Done:  E(RPBE1PBE) =  -560.056934496     A.U. after   12 cycles

 The electronic state is 1-A.
 Alpha  occ. eigenvalues --  -66.24310 -19.20697 -19.19632 -10.26314 -10.21658
 Alpha  occ. eigenvalues --  -10.20522  -5.32227  -3.65760  -3.65631  -3.65481
 Alpha  occ. eigenvalues --   -1.05455  -1.02978  -0.78035  -0.70340  -0.63919
 Alpha  occ. eigenvalues --   -0.57890  -0.51353  -0.46719  -0.46518  -0.45997
 Alpha  occ. eigenvalues --   -0.43461  -0.40689  -0.40135  -0.37531  -0.37006
 Alpha  occ. eigenvalues --   -0.35884  -0.31729  -0.30239  -0.29367
 Alpha virt. eigenvalues --    0.02232   0.05801   0.06205   0.08159   0.09030
 Alpha virt. eigenvalues --    0.10302   0.11046   0.11665   0.12395   0.13531
 Alpha virt. eigenvalues --    0.14484   0.15320   0.16365   0.16897   0.19453

 Mulliken atomic charges:
              1
     1  H    0.130306
     2  C   -0.395272
     3  C   -0.313130
     4  H    0.102877
     5  H    0.143109
     6  H    0.119494
     7  Si   0.519164
     8  H    0.116493
     9  O   -0.481134
    10  O   -0.343814
    11  H   -0.072017
    12  H    0.322523
    13  C   -0.210849
    14  H    0.128397
    15  H    0.117487
    16  H    0.116365
 Sum of Mulliken atomic charges =   0.00000

 Dipole moment (field-independent basis, Debye):
    X=             -0.2734    Y=             -0.3509    Z=             -1.0950  Tot=              1.1819
 Quadrupole moment (field-independent basis, Debye-Ang):
   XX=            -41.3976   YY=            -48.8236   ZZ=            -42.8682
   XY=             -1.5823   XZ=             -0.1813   YZ=             -1.7523

 Normal termination of Gaussian 09 at Fri Aug 10 01:08:11 2018.
