 Gaussian 09, Revision C.01,
 Gaussian 09:  EM64L-G09RevC.01 23-Sep-2011

 --------------------------------------
 #SP PBE1PBE/Def2TZVP geom=connectivity
 --------------------------------------

 99/5=1,9=1/99;
 -------------
 Structure: 11
 -------------
 Charge =  0 Multiplicity = 1

                         Standard orientation:
 ---------------------------------------------------------------------
 Center     Atomic      Atomic             Coordinates (Angstroms)
 Number     Number       Type             X           Y           Z
 ---------------------------------------------------------------------
      1          1           0        3.224832   -1.247710    0.285067
      2          6           0        2.231729   -0.858336    0.523360
      3          6           0        1.617829   -0.119302   -0.664934
      4          1           0        2.348389   -0.201966    1.391048
      5          1           0        1.609524   -1.703142    0.828929
      6          1           0        2.256459    0.718954   -0.964734
      7         14           0       -0.091582    0.548352   -0.357723
      8          1           0        1.559478   -0.783379   -1.533879
      9          8           0       -0.135427    1.412429    0.643764
     10          8           0       -1.038401   -0.763394   -0.073257
     11          1           0       -0.630659    1.323673   -1.504473
     12          1           0        0.219497    1.130442    1.487464
     13          6           0       -2.430846   -0.695666    0.127155
     14          1           0       -2.814997   -1.712965    0.220568
     15          1           0       -2.934254   -0.210542   -0.717828
     16          1           0       -2.677770   -0.142746    1.038416
 ---------------------------------------------------------------------

 SCF Done:  E(RPBE1PBE) =  -559.945029611     A.U. after   12 cycles

 The electronic state is 1-A.
 Alpha  occ. eigenvalues --  -66.20168 -19.21237 -19.18529 -10.25962 -10.21493
 Alpha  occ. eigenvalues --  -10.19493  -5.29759  -3.63625  -3.62914  -3.62750
 Alpha  occ. eigenvalues --   -1.11954  -1.02484  -0.77579  -0.69861  -0.64019
 Alpha  occ. eigenvalues --   -0.61760  -0.51550  -0.47728  -0.46734  -0.45907
 Alpha  occ. eigenvalues --   -0.43739  -0.42985  -0.41623  -0.39415  -0.36188
 Alpha  occ. eigenvalues --   -0.35602  -0.30998  -0.29574  -0.28281
 Alpha virt. eigenvalues --    0.01718   0.06204   0.06694   0.08518   0.09140
 Alpha virt. eigenvalues --    0.10558   0.11444   0.12116   0.12575   0.13490
 Alpha virt. eigenvalues --    0.15304   0.15731   0.17155   0.17757   0.19815

 Mulliken atomic charges:
              1
     1  H    0.130894
     2  C   -0.401836
     3  C   -0.342055
     4  H    0.096207
     5  H    0.145442
     6  H    0.114265
     7  Si   0.445774
     8  H    0.112951
     9  O   -0.311772
    10  O   -0.365136
    11  H   -0.101357
    12  H    0.336526
    13  C   -0.211791
    14  H    0.127597
    15  H    0.117751
    16  H    0.106542
 Sum of Mulliken atomic charges =   0.00000

 Dipole moment (field-independent basis, Debye):
    X=              0.2530    Y=              0.1315    Z=              1.7765  Tot=              1.7993
 Quadrupole moment (field-independent basis, Debye-Ang):
   XX=            -41.9750   YY=            -47.7601   ZZ=            -42.8126
   XY=              1.4219   XZ=             -0.1397   YZ=              1.8575

 Normal termination of Gaussian 09 at Thu Aug  9 22:51:07 2018.
