 Gaussian 09, Revision C.01,
 Gaussian 09:  EM64L-G09RevC.01 23-Sep-2011

 --------------------------------------
 #SP PBE1PBE/Def2TZVP geom=connectivity
 --------------------------------------

 99/5=1,9=1/99;
 --------------
 Structure: 112
 --------------
 Charge =  0 Multiplicity = 1

                         Standard orientation:
 ---------------------------------------------------------------------
 Center     Atomic      Atomic             Coordinates (Angstroms)
 Number     Number       Type             X           Y           Z
 ---------------------------------------------------------------------
      1          1           0       -3.228128   -1.219297   -0.418315
      2          6           0       -2.233798   -0.806124   -0.606050
      3          6           0       -1.620191   -0.218901    0.664281
      4          1           0       -2.347638   -0.048606   -1.387409
      5          1           0       -1.612948   -1.608847   -1.011501
      6          1           0       -2.257472    0.578063    1.063184
      7         14           0        0.091160    0.477188    0.443010
      8          1           0       -1.564680   -0.984084    1.445871
      9          8           0        0.145229    1.606669   -0.580780
     10          8           0        1.035572   -0.792331    0.002016
     11          1           0        0.630090    1.105667    1.676433
     12          1           0       -0.209030    1.430205   -1.453993
     13          6           0        2.428480   -0.703963   -0.186802
     14          1           0        2.810561   -1.703192   -0.403020
     15          1           0        2.931591   -0.326647    0.711681
     16          1           0        2.678067   -0.044670   -1.023539
 ---------------------------------------------------------------------

 SCF Done:  E(RPBE1PBE) =  -560.050335749     A.U. after   12 cycles

 The electronic state is 1-A.
 Alpha  occ. eigenvalues --  -66.23700 -19.20886 -19.19434 -10.26247 -10.21623
 Alpha  occ. eigenvalues --  -10.20344  -5.31793  -3.65341  -3.65184  -3.65030
 Alpha  occ. eigenvalues --   -1.06406  -1.02994  -0.77949  -0.70249  -0.63861
 Alpha  occ. eigenvalues --   -0.58581  -0.51394  -0.46685  -0.46485  -0.46021
 Alpha  occ. eigenvalues --   -0.43421  -0.40808  -0.40477  -0.38161  -0.36887
 Alpha  occ. eigenvalues --   -0.35862  -0.31621  -0.30125  -0.29190
 Alpha virt. eigenvalues --    0.02175   0.05911   0.06288   0.08231   0.09057
 Alpha virt. eigenvalues --    0.10360   0.11130   0.11771   0.12436   0.13538
 Alpha virt. eigenvalues --    0.14700   0.15359   0.16503   0.17076   0.19530

 Mulliken atomic charges:
              1
     1  H    0.130374
     2  C   -0.396252
     3  C   -0.317488
     4  H    0.101597
     5  H    0.143452
     6  H    0.118570
     7  Si   0.507069
     8  H    0.115811
     9  O   -0.454024
    10  O   -0.346668
    11  H   -0.076674
    12  H    0.324680
    13  C   -0.210768
    14  H    0.128228
    15  H    0.117473
    16  H    0.114619
 Sum of Mulliken atomic charges =   0.00000

 Dipole moment (field-independent basis, Debye):
    X=             -0.2691    Y=             -0.2444    Z=             -1.2060  Tot=              1.2596
 Quadrupole moment (field-independent basis, Debye-Ang):
   XX=            -41.5084   YY=            -48.6045   ZZ=            -42.8690
   XY=             -1.5502   XZ=             -0.1716   YZ=             -1.7585

 Normal termination of Gaussian 09 at Thu Aug  9 22:51:09 2018.
