 Gaussian 09, Revision C.01,
 Gaussian 09:  EM64L-G09RevC.01 23-Sep-2011

 --------------------------------------
 #SP PBE1PBE/Def2TZVP geom=connectivity
 --------------------------------------

 99/5=1,9=1/99;
 --------------
 Structure: 168
 --------------
 Charge =  0 Multiplicity = 1

                         Standard orientation:
 ---------------------------------------------------------------------
 Center     Atomic      Atomic             Coordinates (Angstroms)
 Number     Number       Type             X           Y           Z
 ---------------------------------------------------------------------
      1          1           0       -3.230306   -1.198654   -0.486467
      2          6           0       -2.235169   -0.775995   -0.646815
      3          6           0       -1.621769   -0.271597    0.658715
      4          1           0       -2.347140    0.029783   -1.378591
      5          1           0       -1.615211   -1.552357   -1.101926
      6          1           0       -2.258161    0.499458    1.106914
      7         14           0        0.090858    0.434380    0.483424
      8          1           0       -1.568139   -1.084946    1.390190
      9          8           0        0.151793    1.713934   -0.537155
     10          8           0        1.033681   -0.806098   -0.036544
     11          1           0        0.629678    0.982415    1.754680
     12          1           0       -0.201897    1.594037   -1.419111
     13          6           0        2.426891   -0.708163   -0.218281
     14          1           0        2.807607   -1.692263   -0.497205
     15          1           0        2.929796   -0.389462    0.702738
     16          1           0        2.678242    0.002520   -1.011277
 ---------------------------------------------------------------------

 SCF Done:  E(RPBE1PBE) =  -560.061250894     A.U. after   12 cycles

 The electronic state is 1-A.
 Alpha  occ. eigenvalues --  -66.25247 -19.20308 -19.19966 -10.26432 -10.21722
 Alpha  occ. eigenvalues --  -10.20819  -5.32937  -3.66462  -3.66352  -3.66207
 Alpha  occ. eigenvalues --   -1.04497  -1.02450  -0.78185  -0.70497  -0.64036
 Alpha  occ. eigenvalues --   -0.56849  -0.51215  -0.46827  -0.46607  -0.45980
 Alpha  occ. eigenvalues --   -0.43550  -0.40910  -0.39211  -0.37212  -0.36659
 Alpha  occ. eigenvalues --   -0.35734  -0.31869  -0.30418  -0.29647
 Alpha virt. eigenvalues --    0.02298   0.05584   0.06064   0.08034   0.08983
 Alpha virt. eigenvalues --    0.10194   0.10885   0.11450   0.12319   0.13502
 Alpha virt. eigenvalues --    0.14108   0.15250   0.16129   0.16597   0.19317

 Mulliken atomic charges:
              1
     1  H    0.130225
     2  C   -0.393736
     3  C   -0.306617
     4  H    0.105084
     5  H    0.142569
     6  H    0.121034
     7  Si   0.536556
     8  H    0.117674
     9  O   -0.521731
    10  O   -0.339780
    11  H   -0.064647
    12  H    0.319027
    13  C   -0.211214
    14  H    0.128713
    15  H    0.117549
    16  H    0.119294
 Sum of Mulliken atomic charges =   0.00000

 Dipole moment (field-independent basis, Debye):
    X=             -0.2811    Y=             -0.5470    Z=             -0.9182  Tot=              1.1051
 Quadrupole moment (field-independent basis, Debye-Ang):
   XX=            -41.2055   YY=            -49.2180   ZZ=            -42.8606
   XY=             -1.6398   XZ=             -0.1992   YZ=             -1.7530

 Normal termination of Gaussian 09 at Fri Aug 10 04:54:00 2018.
