 Gaussian 09, Revision C.01,
 Gaussian 09:  EM64L-G09RevC.01 23-Sep-2011

 --------------------------------------
 #SP PBE1PBE/Def2TZVP geom=connectivity
 --------------------------------------

 99/5=1,9=1/99;
 --------------
 Structure: 115
 --------------
 Charge =  0 Multiplicity = 1

                         Standard orientation:
 ---------------------------------------------------------------------
 Center     Atomic      Atomic             Coordinates (Angstroms)
 Number     Number       Type             X           Y           Z
 ---------------------------------------------------------------------
      1          1           0       -3.228324   -1.218034   -0.422495
      2          6           0       -2.233933   -0.804264   -0.608584
      3          6           0       -1.620332   -0.221994    0.664028
      4          1           0       -2.347632   -0.043741   -1.387038
      5          1           0       -1.613155   -1.605503   -1.017072
      6          1           0       -2.257540    0.573512    1.065946
      7         14           0        0.091119    0.474730    0.445533
      8          1           0       -1.564961   -0.990176    1.442680
      9          8           0        0.145857    1.612920   -0.578360
     10          8           0        1.035402   -0.793204   -0.000270
     11          1           0        0.630050    1.098407    1.681389
     12          1           0       -0.208370    1.439849   -1.452266
     13          6           0        2.428333   -0.704283   -0.188663
     14          1           0        2.810305   -1.702722   -0.408689
     15          1           0        2.931435   -0.330477    0.711291
     16          1           0        2.678051   -0.041816   -1.022850
 ---------------------------------------------------------------------

 SCF Done:  E(RPBE1PBE) =  -560.051597822     A.U. after   12 cycles

 The electronic state is 1-A.
 Alpha  occ. eigenvalues --  -66.23798 -19.20859 -19.19464 -10.26256 -10.21628
 Alpha  occ. eigenvalues --  -10.20372  -5.31861  -3.65406  -3.65255  -3.65101
 Alpha  occ. eigenvalues --   -1.06248  -1.02998  -0.77962  -0.70263  -0.63870
 Alpha  occ. eigenvalues --   -0.58472  -0.51388  -0.46688  -0.46488  -0.46017
 Alpha  occ. eigenvalues --   -0.43426  -0.40743  -0.40468  -0.38061  -0.36907
 Alpha  occ. eigenvalues --   -0.35868  -0.31638  -0.30143  -0.29218
 Alpha virt. eigenvalues --    0.02185   0.05895   0.06275   0.08219   0.09053
 Alpha virt. eigenvalues --    0.10352   0.11117   0.11756   0.12430   0.13538
 Alpha virt. eigenvalues --    0.14668   0.15352   0.16481   0.17048   0.19518

 Mulliken atomic charges:
              1
     1  H    0.130363
     2  C   -0.396094
     3  C   -0.316789
     4  H    0.101800
     5  H    0.143400
     6  H    0.118716
     7  Si   0.509007
     8  H    0.115923
     9  O   -0.458358
    10  O   -0.346204
    11  H   -0.075939
    12  H    0.324334
    13  C   -0.210767
    14  H    0.128251
    15  H    0.117471
    16  H    0.114887
 Sum of Mulliken atomic charges =   0.00000

 Dipole moment (field-independent basis, Debye):
    X=             -0.2703    Y=             -0.2603    Z=             -1.1884  Tot=              1.2463
 Quadrupole moment (field-independent basis, Debye-Ang):
   XX=            -41.4918   YY=            -48.6373   ZZ=            -42.8691
   XY=             -1.5554   XZ=             -0.1733   YZ=             -1.7572

 Normal termination of Gaussian 09 at Thu Aug  9 23:10:43 2018.
