 Gaussian 09, Revision C.01,
 Gaussian 09:  EM64L-G09RevC.01 23-Sep-2011

 --------------------------------------
 #SP PBE1PBE/Def2TZVP geom=connectivity
 --------------------------------------

 99/5=1,9=1/99;
 --------------
 Structure: 167
 --------------
 Charge =  0 Multiplicity = 1

                         Standard orientation:
 ---------------------------------------------------------------------
 Center     Atomic      Atomic             Coordinates (Angstroms)
 Number     Number       Type             X           Y           Z
 ---------------------------------------------------------------------
      1          1           0       -3.230277   -1.199058   -0.485099
      2          6           0       -2.235153   -0.776581   -0.646005
      3          6           0       -1.621749   -0.270482    0.658864
      4          1           0       -2.347156    0.028250   -1.378820
      5          1           0       -1.615182   -1.553513   -1.100122
      6          1           0       -2.258155    0.501134    1.106076
      7         14           0        0.090857    0.435314    0.482638
      8          1           0       -1.568087   -1.082885    1.391388
      9          8           0        0.151720    1.711568   -0.538154
     10          8           0        1.033706   -0.805810   -0.035741
     11          1           0        0.629680    0.985003    1.753179
     12          1           0       -0.201979    1.590524   -1.419949
     13          6           0        2.426911   -0.708073   -0.217624
     14          1           0        2.807648   -1.692521   -0.495282
     15          1           0        2.929820   -0.388169    0.702976
     16          1           0        2.678232    0.001593   -1.011539
 ---------------------------------------------------------------------

 SCF Done:  E(RPBE1PBE) =  -560.061216447     A.U. after   12 cycles

 The electronic state is 1-A.
 Alpha  occ. eigenvalues --  -66.25217 -19.20322 -19.19954 -10.26428 -10.21720
 Alpha  occ. eigenvalues --  -10.20809  -5.32913  -3.66438  -3.66327  -3.66182
 Alpha  occ. eigenvalues --   -1.04513  -1.02483  -0.78180  -0.70492  -0.64032
 Alpha  occ. eigenvalues --   -0.56883  -0.51222  -0.46822  -0.46603  -0.45980
 Alpha  occ. eigenvalues --   -0.43547  -0.40901  -0.39242  -0.37208  -0.36678
 Alpha  occ. eigenvalues --   -0.35747  -0.31865  -0.30412  -0.29638
 Alpha virt. eigenvalues --    0.02297   0.05593   0.06070   0.08039   0.08984
 Alpha virt. eigenvalues --    0.10198   0.10891   0.11458   0.12322   0.13504
 Alpha virt. eigenvalues --    0.14121   0.15253   0.16137   0.16608   0.19321

 Mulliken atomic charges:
              1
     1  H    0.130227
     2  C   -0.393788
     3  C   -0.306827
     4  H    0.105008
     5  H    0.142588
     6  H    0.120980
     7  Si   0.536023
     8  H    0.117634
     9  O   -0.520424
    10  O   -0.339908
    11  H   -0.064890
    12  H    0.319139
    13  C   -0.211195
    14  H    0.128700
    15  H    0.117544
    16  H    0.119192
 Sum of Mulliken atomic charges =   0.00000

 Dipole moment (field-independent basis, Debye):
    X=             -0.2810    Y=             -0.5397    Z=             -0.9239  Tot=              1.1063
 Quadrupole moment (field-independent basis, Debye-Ang):
   XX=            -41.2125   YY=            -49.2032   ZZ=            -42.8610
   XY=             -1.6377   XZ=             -0.1985   YZ=             -1.7526

 Normal termination of Gaussian 09 at Fri Aug 10 04:47:36 2018.
