 Gaussian 09, Revision C.01,
 Gaussian 09:  EM64L-G09RevC.01 23-Sep-2011

 --------------------------------------
 #SP PBE1PBE/Def2TZVP geom=connectivity
 --------------------------------------

 99/5=1,9=1/99;
 --------------
 Structure: 100
 --------------
 Charge =  0 Multiplicity = 1

                         Standard orientation:
 ---------------------------------------------------------------------
 Center     Atomic      Atomic             Coordinates (Angstroms)
 Number     Number       Type             X           Y           Z
 ---------------------------------------------------------------------
      1          1           0       -3.227764   -1.223064   -0.403437
      2          6           0       -2.233577   -0.812240   -0.596995
      3          6           0       -1.619937   -0.207431    0.665042
      4          1           0       -2.347745   -0.065573   -1.388682
      5          1           0       -1.612567   -1.620295   -0.991462
      6          1           0       -2.257377    0.594770    1.053045
      7         14           0        0.091188    0.486018    0.433949
      8          1           0       -1.564095   -0.961775    1.457075
      9          8           0        0.144188    1.583533   -0.589665
     10          8           0        1.035883   -0.789189    0.010311
     11          1           0        0.630134    1.131551    1.658525
     12          1           0       -0.210084    1.395253   -1.459355
     13          6           0        2.428737   -0.703045   -0.179923
     14          1           0        2.811061   -1.705049   -0.382435
     15          1           0        2.931882   -0.313268    0.713206
     16          1           0        2.678014   -0.055256   -1.025689
 ---------------------------------------------------------------------

 SCF Done:  E(RPBE1PBE) =  -560.044967985     A.U. after   13 cycles

 The electronic state is 1-A.
 Alpha  occ. eigenvalues --  -66.23341 -19.20969 -19.19321 -10.26208 -10.21604
 Alpha  occ. eigenvalues --  -10.20244  -5.31548  -3.65109  -3.64928  -3.64772
 Alpha  occ. eigenvalues --   -1.07018  -1.02962  -0.77902  -0.70199  -0.63837
 Alpha  occ. eigenvalues --   -0.58999  -0.51408  -0.46685  -0.46477  -0.46033
 Alpha  occ. eigenvalues --   -0.43404  -0.41100  -0.40462  -0.38521  -0.36814
 Alpha  occ. eigenvalues --   -0.35839  -0.31553  -0.30058  -0.29089
 Alpha virt. eigenvalues --    0.02146   0.05965   0.06337   0.08269   0.09074
 Alpha virt. eigenvalues --    0.10392   0.11174   0.11825   0.12459   0.13541
 Alpha virt. eigenvalues --    0.14813   0.15382   0.16579   0.17177   0.19571

 Mulliken atomic charges:
              1
     1  H    0.130418
     2  C   -0.396824
     3  C   -0.320086
     4  H    0.100911
     5  H    0.143659
     6  H    0.118049
     7  Si   0.499850
     8  H    0.115446
     9  O   -0.437853
    10  O   -0.348435
    11  H   -0.079350
    12  H    0.325741
    13  C   -0.210762
    14  H    0.128133
    15  H    0.117460
    16  H    0.113644
 Sum of Mulliken atomic charges =   0.00000

 Dipole moment (field-independent basis, Debye):
    X=             -0.2675    Y=             -0.1875    Z=             -1.2682  Tot=              1.3096
 Quadrupole moment (field-independent basis, Debye-Ang):
   XX=            -41.5690   YY=            -48.4837   ZZ=            -42.8698
   XY=             -1.5327   XZ=             -0.1666   YZ=             -1.7625

 Normal termination of Gaussian 09 at Thu Aug  9 22:39:12 2018.
