 Gaussian 09, Revision C.01,
 Gaussian 09:  EM64L-G09RevC.01 23-Sep-2011

 --------------------------------------
 #SP PBE1PBE/Def2TZVP geom=connectivity
 --------------------------------------

 99/5=1,9=1/99;
 --------------
 Structure: 157
 --------------
 Charge =  0 Multiplicity = 1

                         Standard orientation:
 ---------------------------------------------------------------------
 Center     Atomic      Atomic             Coordinates (Angstroms)
 Number     Number       Type             X           Y           Z
 ---------------------------------------------------------------------
      1          1           0       -3.229956   -1.202701   -0.473802
      2          6           0       -2.234961   -0.781710   -0.639333
      3          6           0       -1.621512   -0.261590    0.659990
      4          1           0       -2.347265    0.015243   -1.380662
      5          1           0       -1.614853   -1.563278   -1.085235
      6          1           0       -2.258054    0.514585    1.099045
      7         14           0        0.090892    0.442721    0.476026
      8          1           0       -1.567547   -1.066132    1.401116
      9          8           0        0.150773    1.693423   -0.545824
     10          8           0        1.033986   -0.803615   -0.029234
     11          1           0        0.629744    1.006045    1.740567
     12          1           0       -0.203013    1.562906   -1.426232
     13          6           0        2.427142   -0.707469   -0.212337
     14          1           0        2.808092   -1.694723   -0.479547
     15          1           0        2.930092   -0.377654    0.704736
     16          1           0        2.678179   -0.006235   -1.013799
 ---------------------------------------------------------------------

 SCF Done:  E(RPBE1PBE) =  -560.060679771     A.U. after   12 cycles

 The electronic state is 1-A.
 Alpha  occ. eigenvalues --  -66.24969 -19.20434 -19.19863 -10.26395 -10.21702
 Alpha  occ. eigenvalues --  -10.20729  -5.32721  -3.66248  -3.66134  -3.65987
 Alpha  occ. eigenvalues --   -1.04687  -1.02711  -0.78139  -0.70448  -0.63999
 Alpha  occ. eigenvalues --   -0.57157  -0.51271  -0.46789  -0.46577  -0.45982
 Alpha  occ. eigenvalues --   -0.43521  -0.40835  -0.39493  -0.37177  -0.36851
 Alpha  occ. eigenvalues --   -0.35827  -0.31833  -0.30366  -0.29564
 Alpha virt. eigenvalues --    0.02286   0.05656   0.06109   0.08073   0.08999
 Alpha virt. eigenvalues --    0.10229   0.10937   0.11522   0.12344   0.13514
 Alpha virt. eigenvalues --    0.14225   0.15274   0.16203   0.16687   0.19360

 Mulliken atomic charges:
              1
     1  H    0.130247
     2  C   -0.394191
     3  C   -0.308539
     4  H    0.104409
     5  H    0.142734
     6  H    0.120567
     7  Si   0.531604
     8  H    0.117318
     9  O   -0.509766
    10  O   -0.340942
    11  H   -0.066885
    12  H    0.319985
    13  C   -0.211070
    14  H    0.128611
    15  H    0.117525
    16  H    0.118393
 Sum of Mulliken atomic charges =   0.00000

 Dipole moment (field-independent basis, Debye):
    X=             -0.2792    Y=             -0.4845    Z=             -0.9711  Tot=              1.1206
 Quadrupole moment (field-independent basis, Debye-Ang):
   XX=            -41.2649   YY=            -49.0922   ZZ=            -42.8654
   XY=             -1.6223   XZ=             -0.1941   YZ=             -1.7508

 Normal termination of Gaussian 09 at Fri Aug 10 03:43:15 2018.
