 Gaussian 09, Revision C.01,
 Gaussian 09:  EM64L-G09RevC.01 23-Sep-2011

 --------------------------------------
 #SP PBE1PBE/Def2TZVP geom=connectivity
 --------------------------------------

 99/5=1,9=1/99;
 --------------
 Structure: 134
 --------------
 Charge =  0 Multiplicity = 1

                         Standard orientation:
 ---------------------------------------------------------------------
 Center     Atomic      Atomic             Coordinates (Angstroms)
 Number     Number       Type             X           Y           Z
 ---------------------------------------------------------------------
      1          1           0       -3.229056   -1.211304   -0.445737
      2          6           0       -2.234399   -0.794135   -0.622586
      3          6           0       -1.620860   -0.239772    0.662458
      4          1           0       -2.347486   -0.016937   -1.384484
      5          1           0       -1.613919   -1.586698   -1.048093
      6          1           0       -2.257772    0.547211    1.081269
      7         14           0        0.091011    0.460611    0.459510
      8          1           0       -1.566106   -1.024600    1.424373
      9          8           0        0.148125    1.648527   -0.564144
     10          8           0        1.034768   -0.797902   -0.013283
     11          1           0        0.629913    1.057203    1.708680
     12          1           0       -0.206351    1.495426   -1.441866
     13          6           0        2.427797   -0.705664   -0.199334
     14          1           0        2.809318   -1.699323   -0.440742
     15          1           0        2.930836   -0.351621    0.708611
     16          1           0        2.678094   -0.025486   -1.018968
 ---------------------------------------------------------------------

 SCF Done:  E(RPBE1PBE) =  -560.057130693     A.U. after   12 cycles

 The electronic state is 1-A.
 Alpha  occ. eigenvalues --  -66.24333 -19.20688 -19.19637 -10.26315 -10.21659
 Alpha  occ. eigenvalues --  -10.20530  -5.32244  -3.65777  -3.65648  -3.65499
 Alpha  occ. eigenvalues --   -1.05416  -1.02970  -0.78039  -0.70342  -0.63921
 Alpha  occ. eigenvalues --   -0.57865  -0.51348  -0.46719  -0.46518  -0.45996
 Alpha  occ. eigenvalues --   -0.43461  -0.40693  -0.40108  -0.37506  -0.37010
 Alpha  occ. eigenvalues --   -0.35884  -0.31731  -0.30241  -0.29374
 Alpha virt. eigenvalues --    0.02233   0.05797   0.06202   0.08156   0.09028
 Alpha virt. eigenvalues --    0.10301   0.11043   0.11661   0.12394   0.13530
 Alpha virt. eigenvalues --    0.14477   0.15319   0.16358   0.16890   0.19450

 Mulliken atomic charges:
              1
     1  H    0.130302
     2  C   -0.395194
     3  C   -0.312983
     4  H    0.102907
     5  H    0.143098
     6  H    0.119525
     7  Si   0.519701
     8  H    0.116529
     9  O   -0.482307
    10  O   -0.343713
    11  H   -0.071830
    12  H    0.322505
    13  C   -0.210839
    14  H    0.128395
    15  H    0.117474
    16  H    0.116430
 Sum of Mulliken atomic charges =   0.00000

 Dipole moment (field-independent basis, Debye):
    X=             -0.2750    Y=             -0.3533    Z=             -1.0910  Tot=              1.1793
 Quadrupole moment (field-independent basis, Debye-Ang):
   XX=            -41.3949   YY=            -48.8273   ZZ=            -42.8668
   XY=             -1.5856   XZ=             -0.1807   YZ=             -1.7558

 Normal termination of Gaussian 09 at Fri Aug 10 01:14:44 2018.
