 Gaussian 09, Revision C.01,
 Gaussian 09:  EM64L-G09RevC.01 23-Sep-2011

 --------------------------------------
 #SP PBE1PBE/Def2TZVP geom=connectivity
 --------------------------------------

 99/5=1,9=1/99;
 --------------
 Structure: 181
 --------------
 Charge =  0 Multiplicity = 1

                         Standard orientation:
 ---------------------------------------------------------------------
 Center     Atomic      Atomic             Coordinates (Angstroms)
 Number     Number       Type             X           Y           Z
 ---------------------------------------------------------------------
      1          1           0       -3.230878   -1.193764   -0.500830
      2          6           0       -2.235536   -0.769392   -0.655271
      3          6           0       -1.622174   -0.282932    0.657066
      4          1           0       -2.347035    0.046245   -1.376116
      5          1           0       -1.615814   -1.539793   -1.120715
      6          1           0       -2.258331    0.482263    1.115524
      7         14           0        0.090779    0.424635    0.491642
      8          1           0       -1.569018   -1.106111    1.377497
      9          8           0        0.153528    1.738068   -0.526758
     10          8           0        1.033186   -0.809098   -0.044863
     11          1           0        0.629585    0.955222    1.770284
     12          1           0       -0.200117    1.630055   -1.411297
     13          6           0        2.426471   -0.709297   -0.225006
     14          1           0        2.806831   -1.689697   -0.517129
     15          1           0        2.929334   -0.403276    0.700326
     16          1           0        2.678266    0.011929   -1.008283
 ---------------------------------------------------------------------

 SCF Done:  E(RPBE1PBE) =  -560.061198299     A.U. after   12 cycles

 The electronic state is 1-A.
 Alpha  occ. eigenvalues --  -66.25560 -19.20164 -19.20087 -10.26476 -10.21746
 Alpha  occ. eigenvalues --  -10.20924  -5.33184  -3.66709  -3.66601  -3.66456
 Alpha  occ. eigenvalues --   -1.04384  -1.02035  -0.78240  -0.70555  -0.64082
 Alpha  occ. eigenvalues --   -0.56500  -0.51128  -0.46874  -0.46645  -0.45982
 Alpha  occ. eigenvalues --   -0.43586  -0.40996  -0.38901  -0.37246  -0.36516
 Alpha  occ. eigenvalues --   -0.35550  -0.31900  -0.30478  -0.29740
 Alpha virt. eigenvalues --    0.02296   0.05497   0.06010   0.07989   0.08960
 Alpha virt. eigenvalues --    0.10149   0.10817   0.11363   0.12290   0.13484
 Alpha virt. eigenvalues --    0.13976   0.15219   0.16035   0.16491   0.19265

 Mulliken atomic charges:
              1
     1  H    0.130208
     2  C   -0.393221
     3  C   -0.304468
     4  H    0.105878
     5  H    0.142382
     6  H    0.121590
     7  Si   0.541757
     8  H    0.118107
     9  O   -0.535096
    10  O   -0.338505
    11  H   -0.062124
    12  H    0.318129
    13  C   -0.211396
    14  H    0.128836
    15  H    0.117591
    16  H    0.120333
 Sum of Mulliken atomic charges =   0.00000

 Dipole moment (field-independent basis, Debye):
    X=             -0.2840    Y=             -0.6232    Z=             -0.8600  Tot=              1.0994
 Quadrupole moment (field-independent basis, Debye-Ang):
   XX=            -41.1369   YY=            -49.3720   ZZ=            -42.8520
   XY=             -1.6620   XZ=             -0.2064   YZ=             -1.7602

 Normal termination of Gaussian 09 at Thu Aug  9 23:53:50 2018.
