 Gaussian 09, Revision C.01,
 Gaussian 09:  EM64L-G09RevC.01 23-Sep-2011

 --------------------------------------
 #SP PBE1PBE/Def2TZVP geom=connectivity
 --------------------------------------

 99/5=1,9=1/99;
 -------------
 Structure: 19
 -------------
 Charge =  0 Multiplicity = 1

                         Standard orientation:
 ---------------------------------------------------------------------
 Center     Atomic      Atomic             Coordinates (Angstroms)
 Number     Number       Type             X           Y           Z
 ---------------------------------------------------------------------
      1          1           0       -3.225082   -1.245956   -0.296083
      2          6           0       -2.231888   -0.854371   -0.530336
      3          6           0       -1.618002   -0.127424    0.665398
      4          1           0       -2.348340   -0.189290   -1.391394
      5          1           0       -1.609786   -1.696165   -0.844314
      6          1           0       -2.256530    0.707881    0.973538
      7         14           0        0.091553    0.543002    0.365109
      8          1           0       -1.559861   -0.800214    1.527628
      9          8           0        0.136164    1.428160   -0.639649
     10          8           0        1.038190   -0.765975    0.067575
     11          1           0        0.630627    1.306664    1.519657
     12          1           0       -0.218782    1.154360   -1.487109
     13          6           0        2.430668   -0.696466   -0.131987
     14          1           0        2.814662   -1.712837   -0.235581
     15          1           0        2.934059   -0.219946    0.717887
     16          1           0        2.677788   -0.134452   -1.037615
 ---------------------------------------------------------------------

 SCF Done:  E(RPBE1PBE) =  -559.960118564     A.U. after   12 cycles

 The electronic state is 1-A.
 Alpha  occ. eigenvalues --  -66.20493 -19.21253 -19.18599 -10.25983 -10.21500
 Alpha  occ. eigenvalues --  -10.19560  -5.29908  -3.63725  -3.63098  -3.62934
 Alpha  occ. eigenvalues --   -1.11481  -1.02532  -0.77605  -0.69889  -0.63940
 Alpha  occ. eigenvalues --   -0.61546  -0.51521  -0.47537  -0.46679  -0.45928
 Alpha  occ. eigenvalues --   -0.43642  -0.42882  -0.41465  -0.39449  -0.36247
 Alpha  occ. eigenvalues --   -0.35624  -0.31050  -0.29617  -0.28356
 Alpha virt. eigenvalues --    0.01753   0.06193   0.06659   0.08500   0.09135
 Alpha virt. eigenvalues --    0.10547   0.11423   0.12095   0.12568   0.13497
 Alpha virt. eigenvalues --    0.15288   0.15685   0.17104   0.17713   0.19797

 Mulliken atomic charges:
              1
     1  H    0.130843
     2  C   -0.401368
     3  C   -0.339863
     4  H    0.096567
     5  H    0.145268
     6  H    0.114596
     7  Si   0.449856
     8  H    0.113151
     9  O   -0.323065
    10  O   -0.363369
    11  H   -0.099232
    12  H    0.335727
    13  C   -0.211617
    14  H    0.127637
    15  H    0.117706
    16  H    0.107162
 Sum of Mulliken atomic charges =   0.00000

 Dipole moment (field-independent basis, Debye):
    X=             -0.2539    Y=              0.1097    Z=             -1.7305  Tot=              1.7525
 Quadrupole moment (field-independent basis, Debye-Ang):
   XX=            -41.9436   YY=            -47.8175   ZZ=            -42.8180
   XY=             -1.4307   XZ=             -0.1411   YZ=             -1.8470

 Normal termination of Gaussian 09 at Thu Aug  9 23:44:36 2018.
