 Gaussian 09, Revision C.01,
 Gaussian 09:  EM64L-G09RevC.01 23-Sep-2011

 --------------------------------------
 #SP PBE1PBE/Def2TZVP geom=connectivity
 --------------------------------------

 99/5=1,9=1/99;
 --------------
 Structure: 118
 --------------
 Charge =  0 Multiplicity = 1

                         Standard orientation:
 ---------------------------------------------------------------------
 Center     Atomic      Atomic             Coordinates (Angstroms)
 Number     Number       Type             X           Y           Z
 ---------------------------------------------------------------------
      1          1           0       -3.228345   -1.217106   -0.425941
      2          6           0       -2.233934   -0.802768   -0.610653
      3          6           0       -1.620358   -0.224648    0.663861
      4          1           0       -2.347582   -0.039721   -1.386641
      5          1           0       -1.613169   -1.602698   -1.021716
      6          1           0       -2.257554    0.569571    1.068335
      7         14           0        0.091122    0.472725    0.447686
      8          1           0       -1.565039   -0.995352    1.440020
      9          8           0        0.145901    1.617771   -0.576564
     10          8           0        1.035380   -0.793787   -0.002194
     11          1           0        0.630031    1.092374    1.685577
     12          1           0       -0.208229    1.447804   -1.450075
     13          6           0        2.428320   -0.704300   -0.190250
     14          1           0        2.810267   -1.702033   -0.413499
     15          1           0        2.931403   -0.333432    0.710929
     16          1           0        2.678089   -0.039140   -1.022276
 ---------------------------------------------------------------------

 SCF Done:  E(RPBE1PBE) =  -560.052562681     A.U. after   12 cycles

 The electronic state is 1-A.
 Alpha  occ. eigenvalues --  -66.23878 -19.20827 -19.19488 -10.26265 -10.21632
 Alpha  occ. eigenvalues --  -10.20395  -5.31917  -3.65460  -3.65313  -3.65160
 Alpha  occ. eigenvalues --   -1.06137  -1.03003  -0.77973  -0.70274  -0.63878
 Alpha  occ. eigenvalues --   -0.58402  -0.51385  -0.46691  -0.46492  -0.46014
 Alpha  occ. eigenvalues --   -0.43431  -0.40706  -0.40449  -0.37982  -0.36925
 Alpha  occ. eigenvalues --   -0.35872  -0.31652  -0.30156  -0.29242
 Alpha virt. eigenvalues --    0.02203   0.05882   0.06267   0.08210   0.09053
 Alpha virt. eigenvalues --    0.10345   0.11107   0.11743   0.12426   0.13538
 Alpha virt. eigenvalues --    0.14639   0.15349   0.16465   0.17030   0.19509

 Mulliken atomic charges:
              1
     1  H    0.130352
     2  C   -0.395960
     3  C   -0.316239
     4  H    0.101968
     5  H    0.143355
     6  H    0.118827
     7  Si   0.510618
     8  H    0.116002
     9  O   -0.461702
    10  O   -0.345827
    11  H   -0.075315
    12  H    0.323852
    13  C   -0.210782
    14  H    0.128271
    15  H    0.117463
    16  H    0.115117
 Sum of Mulliken atomic charges =   0.00000

 Dipole moment (field-independent basis, Debye):
    X=             -0.2706    Y=             -0.2727    Z=             -1.1724  Tot=              1.2337
 Quadrupole moment (field-independent basis, Debye-Ang):
   XX=            -41.4769   YY=            -48.6613   ZZ=            -42.8715
   XY=             -1.5586   XZ=             -0.1740   YZ=             -1.7540

 Normal termination of Gaussian 09 at Thu Aug  9 23:30:29 2018.
