 Gaussian 09, Revision C.01,
 Gaussian 09:  EM64L-G09RevC.01 23-Sep-2011

 --------------------------------------
 #SP PBE1PBE/Def2TZVP geom=connectivity
 --------------------------------------

 99/5=1,9=1/99;
 --------------
 Structure: 106
 --------------
 Charge =  0 Multiplicity = 1

                         Standard orientation:
 ---------------------------------------------------------------------
 Center     Atomic      Atomic             Coordinates (Angstroms)
 Number     Number       Type             X           Y           Z
 ---------------------------------------------------------------------
      1          1           0       -3.227885   -1.221288   -0.411062
      2          6           0       -2.233640   -0.809217   -0.601647
      3          6           0       -1.620021   -0.213399    0.664670
      4          1           0       -2.347671   -0.056968   -1.388052
      5          1           0       -1.612691   -1.614536   -1.001765
      6          1           0       -2.257400    0.586114    1.058281
      7         14           0        0.091196    0.481475    0.438595
      8          1           0       -1.564316   -0.973320    1.451362
      9          8           0        0.144485    1.595575   -0.585102
     10          8           0        1.035780   -0.790813    0.006031
     11          1           0        0.630128    1.118289    1.667733
     12          1           0       -0.209747    1.413478   -1.456123
     13          6           0        2.428658   -0.703483   -0.183495
     14          1           0        2.810885   -1.704075   -0.393048
     15          1           0        2.931783   -0.320075    0.712397
     16          1           0        2.678064   -0.049768   -1.024650
 ---------------------------------------------------------------------

 SCF Done:  E(RPBE1PBE) =  -560.047902870     A.U. after   12 cycles

 The electronic state is 1-A.
 Alpha  occ. eigenvalues --  -66.23529 -19.20925 -19.19381 -10.26229 -10.21614
 Alpha  occ. eigenvalues --  -10.20295  -5.31675  -3.65229  -3.65062  -3.64906
 Alpha  occ. eigenvalues --   -1.06708  -1.02984  -0.77926  -0.70226  -0.63850
 Alpha  occ. eigenvalues --   -0.58791  -0.51403  -0.46684  -0.46481  -0.46028
 Alpha  occ. eigenvalues --   -0.43413  -0.40946  -0.40474  -0.38338  -0.36853
 Alpha  occ. eigenvalues --   -0.35852  -0.31590  -0.30094  -0.29142
 Alpha virt. eigenvalues --    0.02166   0.05938   0.06313   0.08249   0.09068
 Alpha virt. eigenvalues --    0.10375   0.11151   0.11798   0.12447   0.13541
 Alpha virt. eigenvalues --    0.14755   0.15371   0.16542   0.17125   0.19551

 Mulliken atomic charges:
              1
     1  H    0.130393
     2  C   -0.396515
     3  C   -0.318752
     4  H    0.101269
     5  H    0.143548
     6  H    0.118321
     7  Si   0.503624
     8  H    0.115631
     9  O   -0.446138
    10  O   -0.347504
    11  H   -0.077979
    12  H    0.325061
    13  C   -0.210771
    14  H    0.128185
    15  H    0.117472
    16  H    0.114155
 Sum of Mulliken atomic charges =   0.00000

 Dipole moment (field-independent basis, Debye):
    X=             -0.2680    Y=             -0.2168    Z=             -1.2356  Tot=              1.2828
 Quadrupole moment (field-independent basis, Debye-Ang):
   XX=            -41.5364   YY=            -48.5452   ZZ=            -42.8718
   XY=             -1.5416   XZ=             -0.1693   YZ=             -1.7597

 Normal termination of Gaussian 09 at Thu Aug  9 23:21:20 2018.
