 Gaussian 09, Revision C.01,
 Gaussian 09:  EM64L-G09RevC.01 23-Sep-2011

 --------------------------------------
 #SP PBE1PBE/Def2TZVP geom=connectivity
 --------------------------------------

 99/5=1,9=1/99;
 --------------
 Structure: 155
 --------------
 Charge =  0 Multiplicity = 1

                         Standard orientation:
 ---------------------------------------------------------------------
 Center     Atomic      Atomic             Coordinates (Angstroms)
 Number     Number       Type             X           Y           Z
 ---------------------------------------------------------------------
      1          1           0       -3.229900   -1.203499   -0.471003
      2          6           0       -2.234931   -0.782894   -0.637668
      3          6           0       -1.621473   -0.259327    0.660266
      4          1           0       -2.347296    0.012101   -1.381087
      5          1           0       -1.614795   -1.565599   -1.081531
      6          1           0       -2.258043    0.517966    1.097297
      7         14           0        0.090890    0.444585    0.474403
      8          1           0       -1.567446   -1.061916    1.403503
      9          8           0        0.150632    1.688673   -0.547803
     10          8           0        1.034034   -0.803027   -0.027605
     11          1           0        0.629747    1.011260    1.737444
     12          1           0       -0.203172    1.555823   -1.427856
     13          6           0        2.427180   -0.707291   -0.210998
     14          1           0        2.808174   -1.695225   -0.475622
     15          1           0        2.930138   -0.375040    0.705191
     16          1           0        2.678158   -0.008154   -1.014307
 ---------------------------------------------------------------------

 SCF Done:  E(RPBE1PBE) =  -560.060464922     A.U. after   12 cycles

 The electronic state is 1-A.
 Alpha  occ. eigenvalues --  -66.24905 -19.20461 -19.19839 -10.26386 -10.21698
 Alpha  occ. eigenvalues --  -10.20709  -5.32672  -3.66199  -3.66084  -3.65938
 Alpha  occ. eigenvalues --   -1.04743  -1.02756  -0.78129  -0.70437  -0.63991
 Alpha  occ. eigenvalues --   -0.57229  -0.51281  -0.46780  -0.46570  -0.45983
 Alpha  occ. eigenvalues --   -0.43514  -0.40820  -0.39557  -0.37173  -0.36899
 Alpha  occ. eigenvalues --   -0.35841  -0.31824  -0.30353  -0.29545
 Alpha virt. eigenvalues --    0.02283   0.05671   0.06119   0.08082   0.09002
 Alpha virt. eigenvalues --    0.10237   0.10949   0.11537   0.12349   0.13516
 Alpha virt. eigenvalues --    0.14251   0.15279   0.16219   0.16709   0.19369

 Mulliken atomic charges:
              1
     1  H    0.130252
     2  C   -0.394297
     3  C   -0.308980
     4  H    0.104258
     5  H    0.142773
     6  H    0.120458
     7  Si   0.530441
     8  H    0.117238
     9  O   -0.507015
    10  O   -0.341215
    11  H   -0.067381
    12  H    0.320216
    13  C   -0.211037
    14  H    0.128586
    15  H    0.117515
    16  H    0.118188
 Sum of Mulliken atomic charges =   0.00000

 Dipole moment (field-independent basis, Debye):
    X=             -0.2790    Y=             -0.4703    Z=             -0.9829  Tot=              1.1248
 Quadrupole moment (field-independent basis, Debye-Ang):
   XX=            -41.2788   YY=            -49.0635   ZZ=            -42.8658
   XY=             -1.6183   XZ=             -0.1928   YZ=             -1.7503

 Normal termination of Gaussian 09 at Fri Aug 10 03:30:17 2018.
