 Gaussian 09, Revision C.01,
 Gaussian 09:  EM64L-G09RevC.01 23-Sep-2011

 --------------------------------------
 #SP PBE1PBE/Def2TZVP geom=connectivity
 --------------------------------------

 99/5=1,9=1/99;
 -------------
 Structure: 14
 -------------
 Charge =  0 Multiplicity = 1

                         Standard orientation:
 ---------------------------------------------------------------------
 Center     Atomic      Atomic             Coordinates (Angstroms)
 Number     Number       Type             X           Y           Z
 ---------------------------------------------------------------------
      1          1           0       -3.224980   -1.246924   -0.289472
      2          6           0       -2.231831   -0.856681   -0.526147
      3          6           0       -1.617927   -0.122483    0.665138
      4          1           0       -2.348390   -0.196818   -1.391196
      5          1           0       -1.609683   -1.700306   -0.835079
      6          1           0       -2.256501    0.714616    0.968273
      7         14           0        0.091556    0.546253    0.360700
      8          1           0       -1.559678   -0.790052    1.531410
      9          8           0        0.135979    1.418566   -0.642300
     10          8           0        1.038277   -0.764421    0.071012
     11          1           0        0.630643    1.316911    1.510585
     12          1           0       -0.219835    1.139647   -1.486929
     13          6           0        2.430738   -0.696009   -0.129055
     14          1           0        2.814805   -1.712957   -0.226537
     15          1           0        2.934145   -0.214329    0.717896
     16          1           0        2.677756   -0.139452   -1.038074
 ---------------------------------------------------------------------

 SCF Done:  E(RPBE1PBE) =  -559.951252465     A.U. after   12 cycles

 The electronic state is 1-A.
 Alpha  occ. eigenvalues --  -66.20299 -19.21243 -19.18555 -10.25969 -10.21498
 Alpha  occ. eigenvalues --  -10.19523  -5.29819  -3.63664  -3.62988  -3.62824
 Alpha  occ. eigenvalues --   -1.11770  -1.02502  -0.77591  -0.69871  -0.63985
 Alpha  occ. eigenvalues --   -0.61678  -0.51538  -0.47650  -0.46711  -0.45916
 Alpha  occ. eigenvalues --   -0.43698  -0.42946  -0.41564  -0.39430  -0.36213
 Alpha  occ. eigenvalues --   -0.35613  -0.31018  -0.29590  -0.28314
 Alpha virt. eigenvalues --    0.01733   0.06200   0.06681   0.08510   0.09139
 Alpha virt. eigenvalues --    0.10554   0.11434   0.12107   0.12572   0.13493
 Alpha virt. eigenvalues --    0.15299   0.15713   0.17133   0.17742   0.19807

 Mulliken atomic charges:
              1
     1  H    0.130881
     2  C   -0.401643
     3  C   -0.341212
     4  H    0.096350
     5  H    0.145393
     6  H    0.114415
     7  Si   0.447268
     8  H    0.113053
     9  O   -0.316187
    10  O   -0.364420
    11  H   -0.100491
    12  H    0.336169
    13  C   -0.211716
    14  H    0.127607
    15  H    0.117723
    16  H    0.106808
 Sum of Mulliken atomic charges =   0.00000

 Dipole moment (field-independent basis, Debye):
    X=             -0.2555    Y=              0.1225    Z=             -1.7565  Tot=              1.7793
 Quadrupole moment (field-independent basis, Debye-Ang):
   XX=            -41.9609   YY=            -47.7828   ZZ=            -42.8178
   XY=             -1.4262   XZ=             -0.1383   YZ=             -1.8505

 Normal termination of Gaussian 09 at Thu Aug  9 23:11:12 2018.
