 Gaussian 09, Revision C.01,
 Gaussian 09:  EM64L-G09RevC.01 23-Sep-2011

 --------------------------------------
 #SP PBE1PBE/Def2TZVP geom=connectivity
 --------------------------------------

 99/5=1,9=1/99;
 --------------
 Structure: 111
 --------------
 Charge =  0 Multiplicity = 1

                         Standard orientation:
 ---------------------------------------------------------------------
 Center     Atomic      Atomic             Coordinates (Angstroms)
 Number     Number       Type             X           Y           Z
 ---------------------------------------------------------------------
      1          1           0       -3.228074   -1.219476   -0.417257
      2          6           0       -2.233761   -0.806442   -0.605388
      3          6           0       -1.620166   -0.218007    0.664388
      4          1           0       -2.347633   -0.049662   -1.387456
      5          1           0       -1.612885   -1.609524   -1.010089
      6          1           0       -2.257472    0.579308    1.062547
      7         14           0        0.091159    0.477936    0.442452
      8          1           0       -1.564621   -0.982454    1.446695
      9          8           0        0.145088    1.604306   -0.581798
     10          8           0        1.035613   -0.791962    0.002643
     11          1           0        0.630076    1.107591    1.675281
     12          1           0       -0.209098    1.427274   -1.453882
     13          6           0        2.428517   -0.703722   -0.186268
     14          1           0        2.810632   -1.703139   -0.401551
     15          1           0        2.931621   -0.325545    0.711857
     16          1           0        2.678074   -0.045205   -1.023625
 ---------------------------------------------------------------------

 SCF Done:  E(RPBE1PBE) =  -560.049938092     A.U. after   12 cycles

 The electronic state is 1-A.
 Alpha  occ. eigenvalues --  -66.23672 -19.20885 -19.19422 -10.26242 -10.21621
 Alpha  occ. eigenvalues --  -10.20335  -5.31774  -3.65323  -3.65164  -3.65010
 Alpha  occ. eigenvalues --   -1.06471  -1.02992  -0.77945  -0.70244  -0.63860
 Alpha  occ. eigenvalues --   -0.58634  -0.51395  -0.46684  -0.46483  -0.46022
 Alpha  occ. eigenvalues --   -0.43419  -0.40831  -0.40478  -0.38193  -0.36883
 Alpha  occ. eigenvalues --   -0.35860  -0.31614  -0.30117  -0.29183
 Alpha virt. eigenvalues --    0.02183   0.05915   0.06294   0.08233   0.09061
 Alpha virt. eigenvalues --    0.10364   0.11134   0.11776   0.12439   0.13540
 Alpha virt. eigenvalues --    0.14707   0.15362   0.16509   0.17090   0.19534

 Mulliken atomic charges:
              1
     1  H    0.130376
     2  C   -0.396296
     3  C   -0.317709
     4  H    0.101548
     5  H    0.143471
     6  H    0.118517
     7  Si   0.506507
     8  H    0.115776
     9  O   -0.452559
    10  O   -0.346813
    11  H   -0.076853
    12  H    0.324591
    13  C   -0.210767
    14  H    0.128215
    15  H    0.117456
    16  H    0.114541
 Sum of Mulliken atomic charges =   0.00000

 Dipole moment (field-independent basis, Debye):
    X=             -0.2692    Y=             -0.2383    Z=             -1.2092  Tot=              1.2615
 Quadrupole moment (field-independent basis, Debye-Ang):
   XX=            -41.5134   YY=            -48.5901   ZZ=            -42.8707
   XY=             -1.5478   XZ=             -0.1706   YZ=             -1.7564

 Normal termination of Gaussian 09 at Thu Aug  9 22:44:34 2018.
