 Gaussian 09, Revision C.01,
 Gaussian 09:  EM64L-G09RevC.01 23-Sep-2011

 --------------------------------------
 #SP PBE1PBE/Def2TZVP geom=connectivity
 --------------------------------------

 99/5=1,9=1/99;
 -------------
 Structure: 15
 -------------
 Charge =  0 Multiplicity = 1

                         Standard orientation:
 ---------------------------------------------------------------------
 Center     Atomic      Atomic             Coordinates (Angstroms)
 Number     Number       Type             X           Y           Z
 ---------------------------------------------------------------------
      1          1           0       -3.224774   -1.247186   -0.290393
      2          6           0       -2.231665   -0.856645   -0.526742
      3          6           0       -1.617782   -0.123491    0.665196
      4          1           0       -2.348307   -0.195998   -1.391181
      5          1           0       -1.609459   -1.699935   -0.836469
      6          1           0       -2.256414    0.713278    0.969121
      7         14           0        0.091637    0.545664    0.361316
      8          1           0       -1.559450   -0.791850    1.530853
      9          8           0        0.135133    1.420612   -0.641513
     10          8           0        1.038455   -0.764667    0.070393
     11          1           0        0.630698    1.315310    1.511890
     12          1           0       -0.219850    1.142422   -1.487527
     13          6           0        2.430904   -0.695957   -0.129657
     14          1           0        2.815051   -1.712784   -0.228085
     15          1           0        2.934299   -0.215014    0.717720
     16          1           0        2.677846   -0.138545   -1.038173
 ---------------------------------------------------------------------

 SCF Done:  E(RPBE1PBE) =  -559.952724374     A.U. after   12 cycles

 The electronic state is 1-A.
 Alpha  occ. eigenvalues --  -66.20330 -19.21249 -19.18567 -10.25974 -10.21496
 Alpha  occ. eigenvalues --  -10.19524  -5.29832  -3.63673  -3.63004  -3.62841
 Alpha  occ. eigenvalues --   -1.11711  -1.02510  -0.77590  -0.69876  -0.63973
 Alpha  occ. eigenvalues --   -0.61648  -0.51537  -0.47629  -0.46706  -0.45918
 Alpha  occ. eigenvalues --   -0.43690  -0.42936  -0.41545  -0.39431  -0.36216
 Alpha  occ. eigenvalues --   -0.35611  -0.31026  -0.29598  -0.28317
 Alpha virt. eigenvalues --    0.01729   0.06199   0.06675   0.08510   0.09137
 Alpha virt. eigenvalues --    0.10552   0.11434   0.12105   0.12571   0.13493
 Alpha virt. eigenvalues --    0.15295   0.15709   0.17132   0.17734   0.19807

 Mulliken atomic charges:
              1
     1  H    0.130868
     2  C   -0.401610
     3  C   -0.340965
     4  H    0.096362
     5  H    0.145349
     6  H    0.114425
     7  Si   0.447808
     8  H    0.113026
     9  O   -0.317471
    10  O   -0.364234
    11  H   -0.100313
    12  H    0.336247
    13  C   -0.211720
    14  H    0.127624
    15  H    0.117744
    16  H    0.106860
 Sum of Mulliken atomic charges =   0.00000

 Dipole moment (field-independent basis, Debye):
    X=             -0.2521    Y=              0.1201    Z=             -1.7548  Tot=              1.7769
 Quadrupole moment (field-independent basis, Debye-Ang):
   XX=            -41.9589   YY=            -47.7909   ZZ=            -42.8147
   XY=             -1.4262   XZ=             -0.1397   YZ=             -1.8532

 Normal termination of Gaussian 09 at Thu Aug  9 23:17:58 2018.
