 Gaussian 09, Revision C.01,
 Gaussian 09:  EM64L-G09RevC.01 23-Sep-2011

 --------------------------------------
 #SP PBE1PBE/Def2TZVP geom=connectivity
 --------------------------------------

 99/5=1,9=1/99;
 --------------
 Structure: 164
 --------------
 Charge =  0 Multiplicity = 1

                         Standard orientation:
 ---------------------------------------------------------------------
 Center     Atomic      Atomic             Coordinates (Angstroms)
 Number     Number       Type             X           Y           Z
 ---------------------------------------------------------------------
      1          1           0       -3.230251   -1.200108   -0.481848
      2          6           0       -2.235148   -0.778097   -0.644105
      3          6           0       -1.621721   -0.267904    0.659159
      4          1           0       -2.347205    0.024437   -1.379424
      5          1           0       -1.615162   -1.556419   -1.095815
      6          1           0       -2.258142    0.505080    1.103980
      7         14           0        0.090853    0.437403    0.480674
      8          1           0       -1.568004   -1.078014    1.394213
      9          8           0        0.151657    1.706718   -0.540233
     10          8           0        1.033732   -0.805296   -0.033858
     11          1           0        0.629695    0.991077    1.749475
     12          1           0       -0.202066    1.582908   -1.421635
     13          6           0        2.426927   -0.708074   -0.216091
     14          1           0        2.807693   -1.693370   -0.490687
     15          1           0        2.929854   -0.385280    0.703489
     16          1           0        2.678196   -0.000881   -1.012226
 ---------------------------------------------------------------------

 SCF Done:  E(RPBE1PBE) =  -560.061114734     A.U. after   12 cycles

 The electronic state is 1-A.
 Alpha  occ. eigenvalues --  -66.25148 -19.20355 -19.19930 -10.26419 -10.21715
 Alpha  occ. eigenvalues --  -10.20787  -5.32859  -3.66385  -3.66273  -3.66128
 Alpha  occ. eigenvalues --   -1.04555  -1.02555  -0.78169  -0.70480  -0.64023
 Alpha  occ. eigenvalues --   -0.56957  -0.51237  -0.46813  -0.46596  -0.45981
 Alpha  occ. eigenvalues --   -0.43540  -0.40882  -0.39314  -0.37198  -0.36723
 Alpha  occ. eigenvalues --   -0.35774  -0.31858  -0.30401  -0.29618
 Alpha virt. eigenvalues --    0.02293   0.05611   0.06081   0.08048   0.08989
 Alpha virt. eigenvalues --    0.10206   0.10903   0.11477   0.12328   0.13507
 Alpha virt. eigenvalues --    0.14151   0.15259   0.16155   0.16627   0.19332

 Mulliken atomic charges:
              1
     1  H    0.130234
     2  C   -0.393893
     3  C   -0.307308
     4  H    0.104848
     5  H    0.142628
     6  H    0.120875
     7  Si   0.534787
     8  H    0.117556
     9  O   -0.517443
    10  O   -0.340193
    11  H   -0.065475
    12  H    0.319348
    13  C   -0.211156
    14  H    0.128677
    15  H    0.117546
    16  H    0.118969
 Sum of Mulliken atomic charges =   0.00000

 Dipole moment (field-independent basis, Debye):
    X=             -0.2808    Y=             -0.5249    Z=             -0.9376  Tot=              1.1106
 Quadrupole moment (field-independent basis, Debye-Ang):
   XX=            -41.2266   YY=            -49.1735   ZZ=            -42.8632
   XY=             -1.6343   XZ=             -0.1980   YZ=             -1.7524

 Normal termination of Gaussian 09 at Fri Aug 10 04:28:18 2018.
