 Gaussian 09, Revision C.01,
 Gaussian 09:  EM64L-G09RevC.01 23-Sep-2011

 --------------------------------------
 #SP PBE1PBE/Def2TZVP geom=connectivity
 --------------------------------------

 99/5=1,9=1/99;
 --------------
 Structure: 124
 --------------
 Charge =  0 Multiplicity = 1

                         Standard orientation:
 ---------------------------------------------------------------------
 Center     Atomic      Atomic             Coordinates (Angstroms)
 Number     Number       Type             X           Y           Z
 ---------------------------------------------------------------------
      1          1           0       -3.228743   -1.214773   -0.433692
      2          6           0       -2.234210   -0.799379   -0.615350
      3          6           0       -1.620624   -0.230491    0.663308
      4          1           0       -2.347587   -0.030803   -1.385902
      5          1           0       -1.613600   -1.596519   -1.032029
      6          1           0       -2.257665    0.560989    1.073355
      7         14           0        0.091052    0.467975    0.452275
      8          1           0       -1.565578   -1.006711    1.433971
      9          8           0        0.147238    1.630200   -0.571625
     10          8           0        1.035043   -0.795539   -0.006506
     11          1           0        0.629985    1.078669    1.694598
     12          1           0       -0.207825    1.465909   -1.447159
     13          6           0        2.428024   -0.705065   -0.193777
     14          1           0        2.809747   -1.701279   -0.424078
     15          1           0        2.931105   -0.340741    0.710070
     16          1           0        2.678046   -0.034065   -1.021024
 ---------------------------------------------------------------------

 SCF Done:  E(RPBE1PBE) =  -560.054598439     A.U. after   12 cycles

 The electronic state is 1-A.
 Alpha  occ. eigenvalues --  -66.24060 -19.20783 -19.19548 -10.26285 -10.21645
 Alpha  occ. eigenvalues --  -10.20451  -5.32046  -3.65584  -3.65446  -3.65294
 Alpha  occ. eigenvalues --   -1.05828  -1.02998  -0.78001  -0.70301  -0.63895
 Alpha  occ. eigenvalues --   -0.58166  -0.51372  -0.46700  -0.46501  -0.46010
 Alpha  occ. eigenvalues --   -0.43444  -0.40666  -0.40350  -0.37788  -0.36960
 Alpha  occ. eigenvalues --   -0.35881  -0.31684  -0.30192  -0.29296
 Alpha virt. eigenvalues --    0.02206   0.05850   0.06240   0.08189   0.09042
 Alpha virt. eigenvalues --    0.10326   0.11080   0.11711   0.12412   0.13534
 Alpha virt. eigenvalues --    0.14577   0.15336   0.16422   0.16971   0.19485

 Mulliken atomic charges:
              1
     1  H    0.130342
     2  C   -0.395665
     3  C   -0.314945
     4  H    0.102334
     5  H    0.143270
     6  H    0.119128
     7  Si   0.514132
     8  H    0.116235
     9  O   -0.470003
    10  O   -0.344965
    11  H   -0.073953
    12  H    0.323441
    13  C   -0.210789
    14  H    0.128318
    15  H    0.117472
    16  H    0.115649
 Sum of Mulliken atomic charges =   0.00000

 Dipole moment (field-independent basis, Debye):
    X=             -0.2742    Y=             -0.3062    Z=             -1.1402  Tot=              1.2121
 Quadrupole moment (field-independent basis, Debye-Ang):
   XX=            -41.4434   YY=            -48.7319   ZZ=            -42.8710
   XY=             -1.5710   XZ=             -0.1757   YZ=             -1.7523

 Normal termination of Gaussian 09 at Fri Aug 10 00:09:34 2018.
