 Gaussian 09, Revision C.01,
 Gaussian 09:  EM64L-G09RevC.01 23-Sep-2011

 --------------------------------------
 #SP PBE1PBE/Def2TZVP geom=connectivity
 --------------------------------------

 99/5=1,9=1/99;
 --------------
 Structure: 105
 --------------
 Charge =  0 Multiplicity = 1

                         Standard orientation:
 ---------------------------------------------------------------------
 Center     Atomic      Atomic             Coordinates (Angstroms)
 Number     Number       Type             X           Y           Z
 ---------------------------------------------------------------------
      1          1           0       -3.227860   -1.221626   -0.409566
      2          6           0       -2.233627   -0.809794   -0.600731
      3          6           0       -1.620001   -0.212230    0.664760
      4          1           0       -2.347689   -0.058624   -1.388162
      5          1           0       -1.612667   -1.615645   -0.999757
      6          1           0       -2.257391    0.587806    1.057288
      7         14           0        0.091197    0.482372    0.437706
      8          1           0       -1.564266   -0.971074    1.452490
      9          8           0        0.144424    1.593196   -0.585939
     10          8           0        1.035802   -0.790485    0.006868
     11          1           0        0.630134    1.120879    1.665964
     12          1           0       -0.209890    1.409629   -1.457665
     13          6           0        2.428675   -0.703383   -0.182800
     14          1           0        2.810922   -1.704251   -0.390991
     15          1           0        2.931806   -0.318738    0.712559
     16          1           0        2.678053   -0.050813   -1.024853
 ---------------------------------------------------------------------

 SCF Done:  E(RPBE1PBE) =  -560.047345741     A.U. after   13 cycles

 The electronic state is 1-A.
 Alpha  occ. eigenvalues --  -66.23491 -19.20940 -19.19368 -10.26224 -10.21611
 Alpha  occ. eigenvalues --  -10.20284  -5.31649  -3.65204  -3.65034  -3.64878
 Alpha  occ. eigenvalues --   -1.06750  -1.02977  -0.77920  -0.70220  -0.63845
 Alpha  occ. eigenvalues --   -0.58815  -0.51402  -0.46683  -0.46479  -0.46028
 Alpha  occ. eigenvalues --   -0.43410  -0.40973  -0.40470  -0.38372  -0.36844
 Alpha  occ. eigenvalues --   -0.35848  -0.31582  -0.30086  -0.29130
 Alpha virt. eigenvalues --    0.02153   0.05943   0.06315   0.08253   0.09065
 Alpha virt. eigenvalues --    0.10379   0.11156   0.11803   0.12449   0.13539
 Alpha virt. eigenvalues --    0.14767   0.15371   0.16548   0.17134   0.19554

 Mulliken atomic charges:
              1
     1  H    0.130399
     2  C   -0.396594
     3  C   -0.318986
     4  H    0.101180
     5  H    0.143571
     6  H    0.118261
     7  Si   0.502872
     8  H    0.115586
     9  O   -0.444728
    10  O   -0.347688
    11  H   -0.078230
    12  H    0.325434
    13  C   -0.210763
    14  H    0.128173
    15  H    0.117468
    16  H    0.114044
 Sum of Mulliken atomic charges =   0.00000

 Dipole moment (field-independent basis, Debye):
    X=             -0.2678    Y=             -0.2109    Z=             -1.2432  Tot=              1.2891
 Quadrupole moment (field-independent basis, Debye-Ang):
   XX=            -41.5447   YY=            -48.5347   ZZ=            -42.8678
   XY=             -1.5396   XZ=             -0.1683   YZ=             -1.7615

 Normal termination of Gaussian 09 at Thu Aug  9 23:14:41 2018.
