 Gaussian 09, Revision C.01,
 Gaussian 09:  EM64L-G09RevC.01 23-Sep-2011

 --------------------------------------
 #SP PBE1PBE/Def2TZVP geom=connectivity
 --------------------------------------

 99/5=1,9=1/99;
 --------------
 Structure: 190
 --------------
 Charge =  0 Multiplicity = 1

                         Standard orientation:
 ---------------------------------------------------------------------
 Center     Atomic      Atomic             Coordinates (Angstroms)
 Number     Number       Type             X           Y           Z
 ---------------------------------------------------------------------
      1          1           0       -3.231372   -1.190078   -0.510892
      2          6           0       -2.235861   -0.764608   -0.661165
      3          6           0       -1.622528   -0.290801    0.655807
      4          1           0       -2.346973    0.057853   -1.374275
      5          1           0       -1.616335   -1.530783   -1.133789
      6          1           0       -2.258489    0.470241    1.121392
      7         14           0        0.090693    0.417709    0.497335
      8          1           0       -1.569762   -1.120779    1.368422
      9          8           0        0.155068    1.755026   -0.519429
     10          8           0        1.032756   -0.811217   -0.050685
     11          1           0        0.629491    0.935986    1.781020
     12          1           0       -0.198483    1.655511   -1.405002
     13          6           0        2.426101   -0.710197   -0.229672
     14          1           0        2.806169   -1.687920   -0.531004
     15          1           0        2.928932   -0.413120    0.698588
     16          1           0        2.678261    0.018323   -1.006051
 ---------------------------------------------------------------------

 SCF Done:  E(RPBE1PBE) =  -560.060743304     A.U. after   12 cycles

 The electronic state is 1-A.
 Alpha  occ. eigenvalues --  -66.25775 -19.20173 -19.20051 -10.26508 -10.21765
 Alpha  occ. eigenvalues --  -10.21000  -5.33357  -3.66882  -3.66776  -3.66630
 Alpha  occ. eigenvalues --   -1.04358  -1.01713  -0.78280  -0.70596  -0.64117
 Alpha  occ. eigenvalues --   -0.56280  -0.51055  -0.46909  -0.46673  -0.45987
 Alpha  occ. eigenvalues --   -0.43614  -0.41059  -0.38700  -0.37258  -0.36463
 Alpha  occ. eigenvalues --   -0.35383  -0.31913  -0.30518  -0.29804
 Alpha virt. eigenvalues --    0.02295   0.05432   0.05971   0.07957   0.08945
 Alpha virt. eigenvalues --    0.10116   0.10764   0.11299   0.12268   0.13467
 Alpha virt. eigenvalues --    0.13886   0.15196   0.15967   0.16420   0.19228

 Mulliken atomic charges:
              1
     1  H    0.130199
     2  C   -0.392852
     3  C   -0.303027
     4  H    0.106461
     5  H    0.142253
     6  H    0.121987
     7  Si   0.545115
     8  H    0.118425
     9  O   -0.543992
    10  O   -0.337646
    11  H   -0.060374
    12  H    0.317371
    13  C   -0.211537
    14  H    0.128924
    15  H    0.117619
    16  H    0.121072
 Sum of Mulliken atomic charges =   0.00000

 Dipole moment (field-independent basis, Debye):
    X=             -0.2868    Y=             -0.6787    Z=             -0.8187  Tot=              1.1014
 Quadrupole moment (field-independent basis, Debye-Ang):
   XX=            -41.0872   YY=            -49.4822   ZZ=            -42.8471
   XY=             -1.6788   XZ=             -0.2120   YZ=             -1.7653

 Normal termination of Gaussian 09 at Fri Aug 10 00:51:17 2018.
