 Gaussian 09, Revision C.01,
 Gaussian 09:  EM64L-G09RevC.01 23-Sep-2011

 --------------------------------------
 #SP PBE1PBE/Def2TZVP geom=connectivity
 --------------------------------------

 99/5=1,9=1/99;
 --------------
 Structure: 189
 --------------
 Charge =  0 Multiplicity = 1

                         Standard orientation:
 ---------------------------------------------------------------------
 Center     Atomic      Atomic             Coordinates (Angstroms)
 Number     Number       Type             X           Y           Z
 ---------------------------------------------------------------------
      1          1           0       -3.231215   -1.190691   -0.509825
      2          6           0       -2.235747   -0.765278   -0.660544
      3          6           0       -1.622414   -0.290135    0.655947
      4          1           0       -2.346955    0.056479   -1.374450
      5          1           0       -1.616168   -1.531857   -1.132442
      6          1           0       -2.258428    0.471302    1.120812
      7         14           0        0.090739    0.418373    0.496730
      8          1           0       -1.569551   -1.119415    1.369368
      9          8           0        0.154529    1.753594   -0.520081
     10          8           0        1.032894   -0.811001   -0.050123
     11          1           0        0.629532    0.937947    1.779893
     12          1           0       -0.199041    1.653186   -1.405545
     13          6           0        2.426225   -0.710031   -0.229254
     14          1           0        2.806370   -1.688012   -0.529647
     15          1           0        2.929058   -0.412006    0.698700
     16          1           0        2.678294    0.017756   -1.006350
 ---------------------------------------------------------------------

 SCF Done:  E(RPBE1PBE) =  -560.060798926     A.U. after   12 cycles

 The electronic state is 1-A.
 Alpha  occ. eigenvalues --  -66.25755 -19.20166 -19.20062 -10.26506 -10.21763
 Alpha  occ. eigenvalues --  -10.20992  -5.33341  -3.66866  -3.66760  -3.66614
 Alpha  occ. eigenvalues --   -1.04360  -1.01744  -0.78276  -0.70594  -0.64113
 Alpha  occ. eigenvalues --   -0.56299  -0.51063  -0.46907  -0.46672  -0.45986
 Alpha  occ. eigenvalues --   -0.43611  -0.41053  -0.38718  -0.37257  -0.36467
 Alpha  occ. eigenvalues --   -0.35400  -0.31913  -0.30515  -0.29798
 Alpha virt. eigenvalues --    0.02295   0.05439   0.05974   0.07960   0.08947
 Alpha virt. eigenvalues --    0.10118   0.10769   0.11305   0.12270   0.13469
 Alpha virt. eigenvalues --    0.13894   0.15198   0.15974   0.16426   0.19232

 Mulliken atomic charges:
              1
     1  H    0.130198
     2  C   -0.392885
     3  C   -0.303159
     4  H    0.106401
     5  H    0.142261
     6  H    0.121952
     7  Si   0.544820
     8  H    0.118388
     9  O   -0.543166
    10  O   -0.337719
    11  H   -0.060543
    12  H    0.317434
    13  C   -0.211534
    14  H    0.128921
    15  H    0.117624
    16  H    0.121007
 Sum of Mulliken atomic charges =   0.00000

 Dipole moment (field-independent basis, Debye):
    X=             -0.2857    Y=             -0.6739    Z=             -0.8228  Tot=              1.1013
 Quadrupole moment (field-independent basis, Debye-Ang):
   XX=            -41.0909   YY=            -49.4731   ZZ=            -42.8480
   XY=             -1.6767   XZ=             -0.2112   YZ=             -1.7649

 Normal termination of Gaussian 09 at Fri Aug 10 00:44:48 2018.
