 Gaussian 09, Revision C.01,
 Gaussian 09:  EM64L-G09RevC.01 23-Sep-2011

 --------------------------------------
 #SP PBE1PBE/Def2TZVP geom=connectivity
 --------------------------------------

 99/5=1,9=1/99;
 --------------
 Structure: 199
 --------------
 Charge =  0 Multiplicity = 1

                         Standard orientation:
 ---------------------------------------------------------------------
 Center     Atomic      Atomic             Coordinates (Angstroms)
 Number     Number       Type             X           Y           Z
 ---------------------------------------------------------------------
      1          1           0       -3.231748   -1.186568   -0.520997
      2          6           0       -2.236094   -0.759968   -0.667061
      3          6           0       -1.622794   -0.298976    0.654466
      4          1           0       -2.346874    0.069319   -1.372275
      5          1           0       -1.616728   -1.521761   -1.146924
      6          1           0       -2.258595    0.457756    1.127240
      7         14           0        0.090653    0.410520    0.503006
      8          1           0       -1.570362   -1.135757    1.359106
      9          8           0        0.156170    1.772831   -0.511731
     10          8           0        1.032430   -0.813375   -0.056640
     11          1           0        0.629435    0.916320    1.791666
     12          1           0       -0.197294    1.681906   -1.398261
     13          6           0        2.425829   -0.711051   -0.234474
     14          1           0        2.805651   -1.685953   -0.545110
     15          1           0        2.928624   -0.423026    0.696653
     16          1           0        2.678301    0.024799   -1.003807
 ---------------------------------------------------------------------

 SCF Done:  E(RPBE1PBE) =  -560.059939607     A.U. after   12 cycles

 The electronic state is 1-A.
 Alpha  occ. eigenvalues --  -66.25994 -19.20264 -19.19931 -10.26542 -10.21784
 Alpha  occ. eigenvalues --  -10.21078  -5.33536  -3.67061  -3.66956  -3.66809
 Alpha  occ. eigenvalues --   -1.04361  -1.01359  -0.78322  -0.70641  -0.64153
 Alpha  occ. eigenvalues --   -0.56068  -0.50967  -0.46948  -0.46705  -0.45993
 Alpha  occ. eigenvalues --   -0.43643  -0.41125  -0.38515  -0.37252  -0.36434
 Alpha  occ. eigenvalues --   -0.35196  -0.31919  -0.30558  -0.29867
 Alpha virt. eigenvalues --    0.02288   0.05363   0.05929   0.07923   0.08930
 Alpha virt. eigenvalues --    0.10077   0.10704   0.11230   0.12245   0.13446
 Alpha virt. eigenvalues --    0.13796   0.15169   0.15895   0.16349   0.19190

 Mulliken atomic charges:
              1
     1  H    0.130191
     2  C   -0.392472
     3  C   -0.301585
     4  H    0.107064
     5  H    0.142117
     6  H    0.122403
     7  Si   0.548336
     8  H    0.118747
     9  O   -0.552853
    10  O   -0.336775
    11  H   -0.058589
    12  H    0.316596
    13  C   -0.211710
    14  H    0.129025
    15  H    0.117662
    16  H    0.121844
 Sum of Mulliken atomic charges =   0.00000

 Dipole moment (field-independent basis, Debye):
    X=             -0.2887    Y=             -0.7383    Z=             -0.7771  Tot=              1.1101
 Quadrupole moment (field-independent basis, Debye-Ang):
   XX=            -41.0340   YY=            -49.6010   ZZ=            -42.8420
   XY=             -1.6959   XZ=             -0.2176   YZ=             -1.7718

 Normal termination of Gaussian 09 at Fri Aug 10 01:48:46 2018.
