 Gaussian 09, Revision C.01,
 Gaussian 09:  EM64L-G09RevC.01 23-Sep-2011

 --------------------------------------
 #SP PBE1PBE/Def2TZVP geom=connectivity
 --------------------------------------

 99/5=1,9=1/99;
 --------------
 Structure: 160
 --------------
 Charge =  0 Multiplicity = 1

                         Standard orientation:
 ---------------------------------------------------------------------
 Center     Atomic      Atomic             Coordinates (Angstroms)
 Number     Number       Type             X           Y           Z
 ---------------------------------------------------------------------
      1          1           0       -3.230012   -1.201877   -0.476620
      2          6           0       -2.234991   -0.780497   -0.641003
      3          6           0       -1.621548   -0.263874    0.659718
      4          1           0       -2.347235    0.018435   -1.380206
      5          1           0       -1.614911   -1.560904   -1.088972
      6          1           0       -2.258061    0.511160    1.100826
      7         14           0        0.090897    0.440837    0.477675
      8          1           0       -1.567642   -1.070393    1.398697
      9          8           0        0.150914    1.698199   -0.543743
     10          8           0        1.033940   -0.804195   -0.030883
     11          1           0        0.629745    1.000760    1.743728
     12          1           0       -0.202928    1.569836   -1.425480
     13          6           0        2.427106   -0.707632   -0.213694
     14          1           0        2.808012   -1.694189   -0.483526
     15          1           0        2.930049   -0.380289    0.704268
     16          1           0        2.678198   -0.004276   -1.013277
 ---------------------------------------------------------------------

 SCF Done:  E(RPBE1PBE) =  -560.060862284     A.U. after   12 cycles

 The electronic state is 1-A.
 Alpha  occ. eigenvalues --  -66.25032 -19.20414 -19.19887 -10.26404 -10.21706
 Alpha  occ. eigenvalues --  -10.20748  -5.32769  -3.66295  -3.66182  -3.66036
 Alpha  occ. eigenvalues --   -1.04626  -1.02647  -0.78149  -0.70459  -0.64006
 Alpha  occ. eigenvalues --   -0.57071  -0.51257  -0.46797  -0.46584  -0.45981
 Alpha  occ. eigenvalues --   -0.43527  -0.40850  -0.39427  -0.37183  -0.36802
 Alpha  occ. eigenvalues --   -0.35810  -0.31842  -0.30378  -0.29582
 Alpha virt. eigenvalues --    0.02280   0.05640   0.06098   0.08065   0.08992
 Alpha virt. eigenvalues --    0.10220   0.10926   0.11506   0.12338   0.13511
 Alpha virt. eigenvalues --    0.14199   0.15268   0.16185   0.16665   0.19349

 Mulliken atomic charges:
              1
     1  H    0.130242
     2  C   -0.394099
     3  C   -0.308074
     4  H    0.104545
     5  H    0.142696
     6  H    0.120670
     7  Si   0.532744
     8  H    0.117391
     9  O   -0.512704
    10  O   -0.340672
    11  H   -0.066373
    12  H    0.319973
    13  C   -0.211098
    14  H    0.128635
    15  H    0.117535
    16  H    0.118589
 Sum of Mulliken atomic charges =   0.00000

 Dipole moment (field-independent basis, Debye):
    X=             -0.2793    Y=             -0.4987    Z=             -0.9605  Tot=              1.1177
 Quadrupole moment (field-independent basis, Debye-Ang):
   XX=            -41.2528   YY=            -49.1226   ZZ=            -42.8616
   XY=             -1.6261   XZ=             -0.1950   YZ=             -1.7530

 Normal termination of Gaussian 09 at Fri Aug 10 04:02:32 2018.
