 Gaussian 09, Revision C.01,
 Gaussian 09:  EM64L-G09RevC.01 23-Sep-2011

 --------------------------------------
 #SP PBE1PBE/Def2TZVP geom=connectivity
 --------------------------------------

 99/5=1,9=1/99;
 --------------
 Structure: 129
 --------------
 Charge =  0 Multiplicity = 1

                         Standard orientation:
 ---------------------------------------------------------------------
 Center     Atomic      Atomic             Coordinates (Angstroms)
 Number     Number       Type             X           Y           Z
 ---------------------------------------------------------------------
      1          1           0       -3.228845   -1.213012   -0.440113
      2          6           0       -2.234259   -0.796633   -0.619208
      3          6           0       -1.620713   -0.235469    0.662878
      4          1           0       -2.347507   -0.023446   -1.385153
      5          1           0       -1.613694   -1.591323   -1.040607
      6          1           0       -2.257710    0.553602    1.077610
      7         14           0        0.091044    0.464086    0.456155
      8          1           0       -1.565798   -1.016295    1.428883
      9          8           0        0.147428    1.639851   -0.567813
     10          8           0        1.034949   -0.796749   -0.010113
     11          1           0        0.629943    1.067279    1.702152
     12          1           0       -0.206604    1.481463   -1.443538
     13          6           0        2.427953   -0.705288   -0.196737
     14          1           0        2.809599   -1.700141   -0.432971
     15          1           0        2.931002   -0.346429    0.709311
     16          1           0        2.678099   -0.029370   -1.019934
 ---------------------------------------------------------------------

 SCF Done:  E(RPBE1PBE) =  -560.056031363     A.U. after   12 cycles

 The electronic state is 1-A.
 Alpha  occ. eigenvalues --  -66.24208 -19.20724 -19.19596 -10.26302 -10.21652
 Alpha  occ. eigenvalues --  -10.20492  -5.32153  -3.65688  -3.65555  -3.65405
 Alpha  occ. eigenvalues --   -1.05623  -1.02995  -0.78021  -0.70324  -0.63910
 Alpha  occ. eigenvalues --   -0.58025  -0.51364  -0.46711  -0.46511  -0.46002
 Alpha  occ. eigenvalues --   -0.43453  -0.40676  -0.40230  -0.37639  -0.36989
 Alpha  occ. eigenvalues --   -0.35884  -0.31711  -0.30219  -0.29338
 Alpha virt. eigenvalues --    0.02233   0.05822   0.06222   0.08171   0.09038
 Alpha virt. eigenvalues --    0.10313   0.11061   0.11685   0.12403   0.13534
 Alpha virt. eigenvalues --    0.14522   0.15328   0.16390   0.16930   0.19467

 Mulliken atomic charges:
              1
     1  H    0.130317
     2  C   -0.395425
     3  C   -0.313889
     4  H    0.102671
     5  H    0.143170
     6  H    0.119336
     7  Si   0.517140
     8  H    0.116384
     9  O   -0.476348
    10  O   -0.344289
    11  H   -0.072818
    12  H    0.322671
    13  C   -0.210825
    14  H    0.128365
    15  H    0.117476
    16  H    0.116065
 Sum of Mulliken atomic charges =   0.00000

 Dipole moment (field-independent basis, Debye):
    X=             -0.2733    Y=             -0.3313    Z=             -1.1126  Tot=              1.1926
 Quadrupole moment (field-independent basis, Debye-Ang):
   XX=            -41.4162   YY=            -48.7816   ZZ=            -42.8715
   XY=             -1.5769   XZ=             -0.1799   YZ=             -1.7512

 Normal termination of Gaussian 09 at Fri Aug 10 00:42:10 2018.
