 Gaussian 09, Revision C.01,
 Gaussian 09:  EM64L-G09RevC.01 23-Sep-2011

 --------------------------------------
 #SP PBE1PBE/Def2TZVP geom=connectivity
 --------------------------------------

 99/5=1,9=1/99;
 --------------
 Structure: 171
 --------------
 Charge =  0 Multiplicity = 1

                         Standard orientation:
 ---------------------------------------------------------------------
 Center     Atomic      Atomic             Coordinates (Angstroms)
 Number     Number       Type             X           Y           Z
 ---------------------------------------------------------------------
      1          1           0       -3.230548   -1.197468   -0.489821
      2          6           0       -2.235338   -0.774470   -0.648813
      3          6           0       -1.621930   -0.274192    0.658297
      4          1           0       -2.347147    0.033578   -1.378109
      5          1           0       -1.615475   -1.549519   -1.106283
      6          1           0       -2.258227    0.495576    1.108837
      7         14           0        0.090815    0.432061    0.485272
      8          1           0       -1.568462   -1.089800    1.387265
      9          8           0        0.152552    1.720009   -0.534514
     10          8           0        1.033475   -0.806953   -0.038467
     11          1           0        0.629651    0.976092    1.758240
     12          1           0       -0.201183    1.602686   -1.417830
     13          6           0        2.426710   -0.708672   -0.219830
     14          1           0        2.807290   -1.691965   -0.501765
     15          1           0        2.929615   -0.392887    0.702194
     16          1           0        2.678212    0.004414   -1.010617
 ---------------------------------------------------------------------

 SCF Done:  E(RPBE1PBE) =  -560.061305465     A.U. after   12 cycles

 The electronic state is 1-A.
 Alpha  occ. eigenvalues --  -66.25322 -19.20282 -19.19996 -10.26443 -10.21728
 Alpha  occ. eigenvalues --  -10.20845  -5.32995  -3.66521  -3.66411  -3.66266
 Alpha  occ. eigenvalues --   -1.04457  -1.02348  -0.78199  -0.70511  -0.64047
 Alpha  occ. eigenvalues --   -0.56750  -0.51193  -0.46837  -0.46617  -0.45980
 Alpha  occ. eigenvalues --   -0.43559  -0.40928  -0.39136  -0.37220  -0.36616
 Alpha  occ. eigenvalues --   -0.35696  -0.31878  -0.30434  -0.29669
 Alpha virt. eigenvalues --    0.02291   0.05564   0.06051   0.08024   0.08975
 Alpha virt. eigenvalues --    0.10182   0.10868   0.11430   0.12312   0.13498
 Alpha virt. eigenvalues --    0.14078   0.15242   0.16104   0.16567   0.19304

 Mulliken atomic charges:
              1
     1  H    0.130223
     2  C   -0.393613
     3  C   -0.306083
     4  H    0.105273
     5  H    0.142524
     6  H    0.121177
     7  Si   0.537801
     8  H    0.117788
     9  O   -0.525093
    10  O   -0.339470
    11  H   -0.064067
    12  H    0.318939
    13  C   -0.211246
    14  H    0.128743
    15  H    0.117568
    16  H    0.119536
 Sum of Mulliken atomic charges =   0.00000

 Dipole moment (field-independent basis, Debye):
    X=             -0.2822    Y=             -0.5659    Z=             -0.9057  Tot=              1.1046
 Quadrupole moment (field-independent basis, Debye-Ang):
   XX=            -41.1898   YY=            -49.2574   ZZ=            -42.8574
   XY=             -1.6462   XZ=             -0.2017   YZ=             -1.7565

 Normal termination of Gaussian 09 at Fri Aug 10 05:13:14 2018.
