 Gaussian 09, Revision C.01,
 Gaussian 09:  EM64L-G09RevC.01 23-Sep-2011

 --------------------------------------
 #SP PBE1PBE/Def2TZVP geom=connectivity
 --------------------------------------

 99/5=1,9=1/99;
 --------------
 Structure: 196
 --------------
 Charge =  0 Multiplicity = 1

                         Standard orientation:
 ---------------------------------------------------------------------
 Center     Atomic      Atomic             Coordinates (Angstroms)
 Number     Number       Type             X           Y           Z
 ---------------------------------------------------------------------
      1          1           0       -3.231496   -1.187781   -0.517851
      2          6           0       -2.235919   -0.761447   -0.665210
      3          6           0       -1.622627   -0.296502    0.654935
      4          1           0       -2.346870    0.065760   -1.372835
      5          1           0       -1.616455   -1.524537   -1.142880
      6          1           0       -2.258527    0.461504    1.125531
      7         14           0        0.090697    0.412828    0.501316
      8          1           0       -1.570022   -1.131215    1.362010
      9          8           0        0.155384    1.766836   -0.514378
     10          8           0        1.032645   -0.812542   -0.054804
     11          1           0        0.629463    0.922473    1.788466
     12          1           0       -0.198040    1.673440   -1.399638
     13          6           0        2.426017   -0.710512   -0.233009
     14          1           0        2.805982   -1.686255   -0.540817
     15          1           0        2.928814   -0.419689    0.697248
     16          1           0        2.678331    0.023131   -1.004499
 ---------------------------------------------------------------------

 SCF Done:  E(RPBE1PBE) =  -560.060233828     A.U. after   12 cycles

 The electronic state is 1-A.
 Alpha  occ. eigenvalues --  -66.25925 -19.20234 -19.19961 -10.26531 -10.21777
 Alpha  occ. eigenvalues --  -10.21052  -5.33479  -3.67005  -3.66899  -3.66753
 Alpha  occ. eigenvalues --   -1.04359  -1.01494  -0.78308  -0.70627  -0.64141
 Alpha  occ. eigenvalues --   -0.56147  -0.51002  -0.46936  -0.46694  -0.45991
 Alpha  occ. eigenvalues --   -0.43633  -0.41106  -0.38571  -0.37258  -0.36441
 Alpha  occ. eigenvalues --   -0.35259  -0.31919  -0.30545  -0.29848
 Alpha virt. eigenvalues --    0.02300   0.05385   0.05943   0.07934   0.08938
 Alpha virt. eigenvalues --    0.10091   0.10725   0.11252   0.12253   0.13454
 Alpha virt. eigenvalues --    0.13823   0.15178   0.15924   0.16374   0.19203

 Mulliken atomic charges:
              1
     1  H    0.130191
     2  C   -0.392590
     3  C   -0.302060
     4  H    0.106872
     5  H    0.142160
     6  H    0.122261
     7  Si   0.547386
     8  H    0.118632
     9  O   -0.549905
    10  O   -0.337049
    11  H   -0.059139
    12  H    0.316669
    13  C   -0.211666
    14  H    0.128992
    15  H    0.117641
    16  H    0.121605
 Sum of Mulliken atomic charges =   0.00000

 Dipole moment (field-independent basis, Debye):
    X=             -0.2875    Y=             -0.7182    Z=             -0.7887  Tot=              1.1048
 Quadrupole moment (field-independent basis, Debye-Ang):
   XX=            -41.0499   YY=            -49.5595   ZZ=            -42.8457
   XY=             -1.6892   XZ=             -0.2150   YZ=             -1.7672

 Normal termination of Gaussian 09 at Fri Aug 10 01:29:36 2018.
