 Gaussian 09, Revision C.01,
 Gaussian 09:  EM64L-G09RevC.01 23-Sep-2011

 --------------------------------------
 #SP PBE1PBE/Def2TZVP geom=connectivity
 --------------------------------------

 99/5=1,9=1/99;
 -------------
 Structure: 17
 -------------
 Charge =  0 Multiplicity = 1

                         Standard orientation:
 ---------------------------------------------------------------------
 Center     Atomic      Atomic             Coordinates (Angstroms)
 Number     Number       Type             X           Y           Z
 ---------------------------------------------------------------------
      1          1           0       -3.224928   -1.246575   -0.293238
      2          6           0       -2.231776   -0.855510   -0.528540
      3          6           0       -1.617892   -0.125457    0.665300
      4          1           0       -2.348324   -0.192644   -1.391291
      5          1           0       -1.609622   -1.698055   -0.840393
      6          1           0       -2.256472    0.710583    0.971333
      7         14           0        0.091595    0.544336    0.363214
      8          1           0       -1.559655   -0.796033    1.529247
      9          8           0        0.135648    1.424384   -0.640589
     10          8           0        1.038323   -0.765322    0.068986
     11          1           0        0.630663    1.310993    1.515779
     12          1           0       -0.219317    1.148387   -1.487328
     13          6           0        2.430786   -0.696212   -0.130821
     14          1           0        2.814857   -1.712814   -0.231832
     15          1           0        2.934179   -0.217478    0.717807
     16          1           0        2.677817   -0.136498   -1.037896
 ---------------------------------------------------------------------

 SCF Done:  E(RPBE1PBE) =  -559.956469767     A.U. after   12 cycles

 The electronic state is 1-A.
 Alpha  occ. eigenvalues --  -66.20412 -19.21251 -19.18583 -10.25978 -10.21498
 Alpha  occ. eigenvalues --  -10.19542  -5.29870  -3.63699  -3.63051  -3.62887
 Alpha  occ. eigenvalues --   -1.11596  -1.02521  -0.77597  -0.69882  -0.63956
 Alpha  occ. eigenvalues --   -0.61598  -0.51529  -0.47582  -0.46692  -0.45923
 Alpha  occ. eigenvalues --   -0.43665  -0.42910  -0.41505  -0.39440  -0.36231
 Alpha  occ. eigenvalues --   -0.35618  -0.31038  -0.29607  -0.28336
 Alpha virt. eigenvalues --    0.01741   0.06196   0.06667   0.08505   0.09136
 Alpha virt. eigenvalues --    0.10550   0.11429   0.12100   0.12570   0.13495
 Alpha virt. eigenvalues --    0.15292   0.15697   0.17118   0.17724   0.19802

 Mulliken atomic charges:
              1
     1  H    0.130855
     2  C   -0.401489
     3  C   -0.340413
     4  H    0.096464
     5  H    0.145309
     6  H    0.114511
     7  Si   0.448822
     8  H    0.113088
     9  O   -0.320260
    10  O   -0.363801
    11  H   -0.099772
    12  H    0.335987
    13  C   -0.211668
    14  H    0.127630
    15  H    0.117725
    16  H    0.107011
 Sum of Mulliken atomic charges =   0.00000

 Dipole moment (field-independent basis, Debye):
    X=             -0.2530    Y=              0.1149    Z=             -1.7426  Tot=              1.7647
 Quadrupole moment (field-independent basis, Debye-Ang):
   XX=            -41.9513   YY=            -47.8041   ZZ=            -42.8164
   XY=             -1.4284   XZ=             -0.1404   YZ=             -1.8501

 Normal termination of Gaussian 09 at Thu Aug  9 23:31:22 2018.
