 Gaussian 09, Revision C.01,
 Gaussian 09:  EM64L-G09RevC.01 23-Sep-2011

 --------------------------------------
 #SP PBE1PBE/Def2TZVP geom=connectivity
 --------------------------------------

 99/5=1,9=1/99;
 --------------
 Structure: 147
 --------------
 Charge =  0 Multiplicity = 1

                         Standard orientation:
 ---------------------------------------------------------------------
 Center     Atomic      Atomic             Coordinates (Angstroms)
 Number     Number       Type             X           Y           Z
 ---------------------------------------------------------------------
      1          1           0       -3.229460   -1.206631   -0.461683
      2          6           0       -2.234636   -0.787195   -0.632118
      3          6           0       -1.621158   -0.252234    0.661152
      4          1           0       -2.347333    0.001302   -1.382375
      5          1           0       -1.614330   -1.573532   -1.069273
      6          1           0       -2.257897    0.528628    1.091524
      7         14           0        0.090974    0.450542    0.468970
      8          1           0       -1.566797   -1.048343    1.411301
      9          8           0        0.149242    1.673891   -0.553958
     10          8           0        1.034416   -0.801094   -0.022347
     11          1           0        0.629834    1.028286    1.726985
     12          1           0       -0.204640    1.533324   -1.432779
     13          6           0        2.427510   -0.706544   -0.206752
     14          1           0        2.808757   -1.696620   -0.462866
     15          1           0        2.930493   -0.366227    0.706458
     16          1           0        2.678176   -0.014313   -1.016117
 ---------------------------------------------------------------------

 SCF Done:  E(RPBE1PBE) =  -560.059554109     A.U. after   12 cycles

 The electronic state is 1-A.
 Alpha  occ. eigenvalues --  -66.24699 -19.20545 -19.19766 -10.26361 -10.21683
 Alpha  occ. eigenvalues --  -10.20642  -5.32515  -3.66044  -3.65925  -3.65778
 Alpha  occ. eigenvalues --   -1.04959  -1.02873  -0.78095  -0.70403  -0.63964
 Alpha  occ. eigenvalues --   -0.57464  -0.51313  -0.46756  -0.46550  -0.45987
 Alpha  occ. eigenvalues --   -0.43494  -0.40769  -0.39763  -0.37202  -0.37023
 Alpha  occ. eigenvalues --   -0.35869  -0.31793  -0.30313  -0.29483
 Alpha virt. eigenvalues --    0.02271   0.05719   0.06151   0.08109   0.09014
 Alpha virt. eigenvalues --    0.10261   0.10985   0.11584   0.12366   0.13523
 Alpha virt. eigenvalues --    0.14333   0.15295   0.16273   0.16777   0.19400

 Mulliken atomic charges:
              1
     1  H    0.130268
     2  C   -0.394635
     3  C   -0.310419
     4  H    0.103764
     5  H    0.142889
     6  H    0.120114
     7  Si   0.526628
     8  H    0.116965
     9  O   -0.498024
    10  O   -0.342095
    11  H   -0.069000
    12  H    0.320945
    13  C   -0.210967
    14  H    0.128519
    15  H    0.117504
    16  H    0.117546
 Sum of Mulliken atomic charges =   0.00000

 Dipole moment (field-independent basis, Debye):
    X=             -0.2765    Y=             -0.4268    Z=             -1.0216  Tot=              1.1412
 Quadrupole moment (field-independent basis, Debye-Ang):
   XX=            -41.3205   YY=            -48.9759   ZZ=            -42.8682
   XY=             -1.6047   XZ=             -0.1882   YZ=             -1.7495

 Normal termination of Gaussian 09 at Fri Aug 10 02:38:45 2018.
