 Gaussian 09, Revision C.01,
 Gaussian 09:  EM64L-G09RevC.01 23-Sep-2011

 --------------------------------------
 #SP PBE1PBE/Def2TZVP geom=connectivity
 --------------------------------------

 99/5=1,9=1/99;
 --------------
 Structure: 161
 --------------
 Charge =  0 Multiplicity = 1

                         Standard orientation:
 ---------------------------------------------------------------------
 Center     Atomic      Atomic             Coordinates (Angstroms)
 Number     Number       Type             X           Y           Z
 ---------------------------------------------------------------------
      1          1           0       -3.230040   -1.201476   -0.478007
      2          6           0       -2.235006   -0.779908   -0.641827
      3          6           0       -1.621568   -0.264999    0.659576
      4          1           0       -2.347220    0.019992   -1.379988
      5          1           0       -1.614940   -1.559746   -1.090805
      6          1           0       -2.258067    0.509475    1.101686
      7         14           0        0.090898    0.439905    0.478476
      8          1           0       -1.567693   -1.072483    1.397503
      9          8           0        0.150985    1.700570   -0.542750
     10          8           0        1.033916   -0.804487   -0.031694
     11          1           0        0.629744    0.998161    1.745267
     12          1           0       -0.202848    1.573368   -1.424659
     13          6           0        2.427087   -0.707722   -0.214359
     14          1           0        2.807971   -1.693935   -0.485474
     15          1           0        2.930026   -0.381590    0.704036
     16          1           0        2.678208   -0.003329   -1.013019
 ---------------------------------------------------------------------

 SCF Done:  E(RPBE1PBE) =  -560.060941386     A.U. after   12 cycles

 The electronic state is 1-A.
 Alpha  occ. eigenvalues --  -66.25063 -19.20400 -19.19899 -10.26408 -10.21709
 Alpha  occ. eigenvalues --  -10.20759  -5.32793  -3.66319  -3.66207  -3.66061
 Alpha  occ. eigenvalues --   -1.04603  -1.02620  -0.78154  -0.70465  -0.64010
 Alpha  occ. eigenvalues --   -0.57036  -0.51251  -0.46801  -0.46587  -0.45980
 Alpha  occ. eigenvalues --   -0.43530  -0.40858  -0.39395  -0.37186  -0.36780
 Alpha  occ. eigenvalues --   -0.35801  -0.31846  -0.30384  -0.29591
 Alpha virt. eigenvalues --    0.02282   0.05632   0.06093   0.08061   0.08990
 Alpha virt. eigenvalues --    0.10216   0.10920   0.11498   0.12335   0.13510
 Alpha virt. eigenvalues --    0.14186   0.15265   0.16176   0.16654   0.19345

 Mulliken atomic charges:
              1
     1  H    0.130239
     2  C   -0.394047
     3  C   -0.307858
     4  H    0.104621
     5  H    0.142676
     6  H    0.120725
     7  Si   0.533308
     8  H    0.117431
     9  O   -0.514053
    10  O   -0.340539
    11  H   -0.066127
    12  H    0.319859
    13  C   -0.211116
    14  H    0.128647
    15  H    0.117540
    16  H    0.118692
 Sum of Mulliken atomic charges =   0.00000

 Dipole moment (field-independent basis, Debye):
    X=             -0.2794    Y=             -0.5058    Z=             -0.9546  Tot=              1.1159
 Quadrupole moment (field-independent basis, Debye-Ang):
   XX=            -41.2459   YY=            -49.1371   ZZ=            -42.8613
   XY=             -1.6281   XZ=             -0.1956   YZ=             -1.7533

 Normal termination of Gaussian 09 at Fri Aug 10 04:08:56 2018.
