 Gaussian 09, Revision C.01,
 Gaussian 09:  EM64L-G09RevC.01 23-Sep-2011

 --------------------------------------
 #SP PBE1PBE/Def2TZVP geom=connectivity
 --------------------------------------

 99/5=1,9=1/99;
 --------------
 Structure: 175
 --------------
 Charge =  0 Multiplicity = 1

                         Standard orientation:
 ---------------------------------------------------------------------
 Center     Atomic      Atomic             Coordinates (Angstroms)
 Number     Number       Type             X           Y           Z
 ---------------------------------------------------------------------
      1          1           0       -3.230605   -1.196026   -0.494351
      2          6           0       -2.235359   -0.772412   -0.651465
      3          6           0       -1.621982   -0.277826    0.657824
      4          1           0       -2.347079    0.038786   -1.377269
      5          1           0       -1.615526   -1.545519   -1.112248
      6          1           0       -2.258250    0.490031    1.111654
      7         14           0        0.090818    0.429052    0.487935
      8          1           0       -1.568605   -1.096579    1.383264
      9          8           0        0.152694    1.727180   -0.531517
     10          8           0        1.033422   -0.807751   -0.041106
     11          1           0        0.629628    0.967544    1.763267
     12          1           0       -0.200933    1.613892   -1.414371
     13          6           0        2.426672   -0.708780   -0.221974
     14          1           0        2.807200   -1.690872   -0.508135
     15          1           0        2.929552   -0.397015    0.701430
     16          1           0        2.678260    0.007698   -1.009662
 ---------------------------------------------------------------------

 SCF Done:  E(RPBE1PBE) =  -560.061311719     A.U. after   12 cycles

 The electronic state is 1-A.
 Alpha  occ. eigenvalues --  -66.25421 -19.20226 -19.20033 -10.26457 -10.21735
 Alpha  occ. eigenvalues --  -10.20877  -5.33073  -3.66598  -3.66490  -3.66344
 Alpha  occ. eigenvalues --   -1.04425  -1.02243  -0.78216  -0.70529  -0.64062
 Alpha  occ. eigenvalues --   -0.56661  -0.51172  -0.46852  -0.46628  -0.45981
 Alpha  occ. eigenvalues --   -0.43570  -0.40957  -0.39040  -0.37233  -0.36570
 Alpha  occ. eigenvalues --   -0.35643  -0.31888  -0.30452  -0.29699
 Alpha virt. eigenvalues --    0.02302   0.05538   0.06035   0.08010   0.08972
 Alpha virt. eigenvalues --    0.10169   0.10848   0.11403   0.12303   0.13493
 Alpha virt. eigenvalues --    0.14035   0.15234   0.16079   0.16538   0.19289

 Mulliken atomic charges:
              1
     1  H    0.130215
     2  C   -0.393445
     3  C   -0.305441
     4  H    0.105526
     5  H    0.142465
     6  H    0.121342
     7  Si   0.539479
     8  H    0.117913
     9  O   -0.529039
    10  O   -0.339071
    11  H   -0.063266
    12  H    0.318414
    13  C   -0.211314
    14  H    0.128781
    15  H    0.117573
    16  H    0.119869
 Sum of Mulliken atomic charges =   0.00000

 Dipole moment (field-independent basis, Debye):
    X=             -0.2827    Y=             -0.5886    Z=             -0.8855  Tot=              1.1002
 Quadrupole moment (field-independent basis, Debye-Ang):
   XX=            -41.1669   YY=            -49.3013   ZZ=            -42.8578
   XY=             -1.6520   XZ=             -0.2032   YZ=             -1.7557

 Normal termination of Gaussian 09 at Fri Aug 10 05:39:03 2018.
