 Gaussian 09, Revision C.01,
 Gaussian 09:  EM64L-G09RevC.01 23-Sep-2011

 --------------------------------------
 #SP PBE1PBE/Def2TZVP geom=connectivity
 --------------------------------------

 99/5=1,9=1/99;
 -------------
 Structure: 10
 -------------
 Charge =  0 Multiplicity = 1

                         Standard orientation:
 ---------------------------------------------------------------------
 Center     Atomic      Atomic             Coordinates (Angstroms)
 Number     Number       Type             X           Y           Z
 ---------------------------------------------------------------------
      1          1           0        3.224698   -1.248084    0.283857
      2          6           0        2.231628   -0.858902    0.522597
      3          6           0        1.617732   -0.118567   -0.664889
      4          1           0        2.348359   -0.203461    1.390978
      5          1           0        1.609380   -1.703994    0.827290
      6          1           0        2.256405    0.719967   -0.963820
      7         14           0       -0.091626    0.548866   -0.356910
      8          1           0        1.559311   -0.781717   -1.534538
      9          8           0       -0.134958    1.411052    0.644035
     10          8           0       -1.038517   -0.763123   -0.073806
     11          1           0       -0.630695    1.325439   -1.502817
     12          1           0        0.219977    1.128147    1.487424
     13          6           0       -2.430951   -0.695521    0.126725
     14          1           0       -2.815162   -1.712894    0.219071
     15          1           0       -2.934358   -0.209468   -0.717724
     16          1           0       -2.677809   -0.143554    1.038583
 ---------------------------------------------------------------------

 SCF Done:  E(RPBE1PBE) =  -559.943403720     A.U. after   12 cycles

 The electronic state is 1-A.
 Alpha  occ. eigenvalues --  -66.20134 -19.21236 -19.18525 -10.25962 -10.21492
 Alpha  occ. eigenvalues --  -10.19485  -5.29744  -3.63616  -3.62895  -3.62731
 Alpha  occ. eigenvalues --   -1.12001  -1.02481  -0.77575  -0.69859  -0.64027
 Alpha  occ. eigenvalues --   -0.61779  -0.51555  -0.47748  -0.46740  -0.45905
 Alpha  occ. eigenvalues --   -0.43750  -0.42995  -0.41638  -0.39410  -0.36181
 Alpha  occ. eigenvalues --   -0.35599  -0.30994  -0.29572  -0.28273
 Alpha virt. eigenvalues --    0.01713   0.06205   0.06698   0.08520   0.09141
 Alpha virt. eigenvalues --    0.10558   0.11446   0.12118   0.12575   0.13489
 Alpha virt. eigenvalues --    0.15305   0.15736   0.17162   0.17761   0.19817

 Mulliken atomic charges:
              1
     1  H    0.130898
     2  C   -0.401883
     3  C   -0.342287
     4  H    0.096161
     5  H    0.145455
     6  H    0.114230
     7  Si   0.445405
     8  H    0.112918
     9  O   -0.310655
    10  O   -0.365307
    11  H   -0.101590
    12  H    0.336625
    13  C   -0.211821
    14  H    0.127598
    15  H    0.117765
    16  H    0.106488
 Sum of Mulliken atomic charges =   0.00000

 Dipole moment (field-independent basis, Debye):
    X=              0.2521    Y=              0.1333    Z=              1.7817  Tot=              1.8043
 Quadrupole moment (field-independent basis, Debye-Ang):
   XX=            -41.9774   YY=            -47.7554   ZZ=            -42.8124
   XY=              1.4210   XZ=             -0.1393   YZ=              1.8591

 Normal termination of Gaussian 09 at Thu Aug  9 22:44:26 2018.
