 Gaussian 09, Revision C.01,
 Gaussian 09:  EM64L-G09RevC.01 23-Sep-2011

 --------------------------------------
 #SP PBE1PBE/Def2TZVP geom=connectivity
 --------------------------------------

 99/5=1,9=1/99;
 --------------
 Structure: 149
 --------------
 Charge =  0 Multiplicity = 1

                         Standard orientation:
 ---------------------------------------------------------------------
 Center     Atomic      Atomic             Coordinates (Angstroms)
 Number     Number       Type             X           Y           Z
 ---------------------------------------------------------------------
      1          1           0       -3.229638   -1.205663   -0.464236
      2          6           0       -2.234761   -0.785935   -0.633639
      3          6           0       -1.621287   -0.254080    0.660913
      4          1           0       -2.347338    0.004335   -1.382046
      5          1           0       -1.614520   -1.571310   -1.072611
      6          1           0       -2.257961    0.525838    1.093089
      7         14           0        0.090930    0.448962    0.470462
      8          1           0       -1.567046   -1.051954    1.409193
      9          8           0        0.149831    1.677716   -0.552365
     10          8           0        1.034261   -0.801617   -0.023750
     11          1           0        0.629794    1.023691    1.729857
     12          1           0       -0.204025    1.539253   -1.431530
     13          6           0        2.427373   -0.706784   -0.207867
     14          1           0        2.808526   -1.696297   -0.466289
     15          1           0        2.930350   -0.368668    0.706164
     16          1           0        2.678152   -0.012681   -1.015592
 ---------------------------------------------------------------------

 SCF Done:  E(RPBE1PBE) =  -560.059829400     A.U. after   12 cycles

 The electronic state is 1-A.
 Alpha  occ. eigenvalues --  -66.24754 -19.20523 -19.19784 -10.26367 -10.21687
 Alpha  occ. eigenvalues --  -10.20660  -5.32557  -3.66085  -3.65967  -3.65820
 Alpha  occ. eigenvalues --   -1.04897  -1.02846  -0.78104  -0.70411  -0.63971
 Alpha  occ. eigenvalues --   -0.57402  -0.51304  -0.46762  -0.46555  -0.45986
 Alpha  occ. eigenvalues --   -0.43499  -0.40783  -0.39708  -0.37182  -0.37000
 Alpha  occ. eigenvalues --   -0.35864  -0.31801  -0.30323  -0.29499
 Alpha virt. eigenvalues --    0.02274   0.05707   0.06142   0.08102   0.09011
 Alpha virt. eigenvalues --    0.10255   0.10976   0.11572   0.12362   0.13521
 Alpha virt. eigenvalues --    0.14312   0.15291   0.16258   0.16759   0.19391

 Mulliken atomic charges:
              1
     1  H    0.130264
     2  C   -0.394546
     3  C   -0.310032
     4  H    0.103898
     5  H    0.142861
     6  H    0.120204
     7  Si   0.527650
     8  H    0.117042
     9  O   -0.500439
    10  O   -0.341862
    11  H   -0.068564
    12  H    0.320755
    13  C   -0.210978
    14  H    0.128534
    15  H    0.117501
    16  H    0.117713
 Sum of Mulliken atomic charges =   0.00000

 Dipole moment (field-independent basis, Debye):
    X=             -0.2776    Y=             -0.4379    Z=             -1.0112  Tot=              1.1363
 Quadrupole moment (field-independent basis, Debye-Ang):
   XX=            -41.3100   YY=            -48.9983   ZZ=            -42.8673
   XY=             -1.6086   XZ=             -0.1896   YZ=             -1.7495

 Normal termination of Gaussian 09 at Fri Aug 10 02:51:34 2018.
