 Gaussian 09, Revision C.01,
 Gaussian 09:  EM64L-G09RevC.01 23-Sep-2011

 --------------------------------------
 #SP PBE1PBE/Def2TZVP geom=connectivity
 --------------------------------------

 99/5=1,9=1/99;
 --------------
 Structure: 114
 --------------
 Charge =  0 Multiplicity = 1

                         Standard orientation:
 ---------------------------------------------------------------------
 Center     Atomic      Atomic             Coordinates (Angstroms)
 Number     Number       Type             X           Y           Z
 ---------------------------------------------------------------------
      1          1           0       -3.228299   -1.218401   -0.420994
      2          6           0       -2.233919   -0.804868   -0.607673
      3          6           0       -1.620314   -0.220812    0.664117
      4          1           0       -2.347647   -0.045433   -1.387185
      5          1           0       -1.613130   -1.606661   -1.015054
      6          1           0       -2.257535    0.575239    1.064936
      7         14           0        0.091117    0.475646    0.444629
      8          1           0       -1.564916   -0.987907    1.443838
      9          8           0        0.145795    1.610517   -0.579295
     10          8           0        1.035423   -0.792886    0.000579
     11          1           0        0.630051    1.101056    1.679608
     12          1           0       -0.208440    1.436221   -1.452954
     13          6           0        2.428349   -0.704196   -0.187957
     14          1           0        2.810341   -1.702932   -0.406597
     15          1           0        2.931455   -0.329126    0.711469
     16          1           0        2.678041   -0.042886   -1.023069
 ---------------------------------------------------------------------

 SCF Done:  E(RPBE1PBE) =  -560.051137945     A.U. after   12 cycles

 The electronic state is 1-A.
 Alpha  occ. eigenvalues --  -66.23762 -19.20869 -19.19452 -10.26252 -10.21626
 Alpha  occ. eigenvalues --  -10.20362  -5.31836  -3.65382  -3.65228  -3.65074
 Alpha  occ. eigenvalues --   -1.06306  -1.02996  -0.77957  -0.70257  -0.63867
 Alpha  occ. eigenvalues --   -0.58513  -0.51390  -0.46686  -0.46487  -0.46019
 Alpha  occ. eigenvalues --   -0.43424  -0.40766  -0.40473  -0.38098  -0.36900
 Alpha  occ. eigenvalues --   -0.35866  -0.31631  -0.30136  -0.29208
 Alpha virt. eigenvalues --    0.02181   0.05901   0.06280   0.08223   0.09054
 Alpha virt. eigenvalues --    0.10355   0.11122   0.11762   0.12433   0.13538
 Alpha virt. eigenvalues --    0.14680   0.15355   0.16489   0.17058   0.19522

 Mulliken atomic charges:
              1
     1  H    0.130368
     2  C   -0.396154
     3  C   -0.317047
     4  H    0.101727
     5  H    0.143421
     6  H    0.118661
     7  Si   0.508281
     8  H    0.115885
     9  O   -0.456753
    10  O   -0.346379
    11  H   -0.076208
    12  H    0.324466
    13  C   -0.210762
    14  H    0.128240
    15  H    0.117467
    16  H    0.114785
 Sum of Mulliken atomic charges =   0.00000

 Dipole moment (field-independent basis, Debye):
    X=             -0.2702    Y=             -0.2542    Z=             -1.1948  Tot=              1.2511
 Quadrupole moment (field-independent basis, Debye-Ang):
   XX=            -41.4984   YY=            -48.6246   ZZ=            -42.8688
   XY=             -1.5536   XZ=             -0.1728   YZ=             -1.7576

 Normal termination of Gaussian 09 at Thu Aug  9 23:04:11 2018.
