 Gaussian 09, Revision C.01,
 Gaussian 09:  EM64L-G09RevC.01 23-Sep-2011

 --------------------------------------
 #SP PBE1PBE/Def2TZVP geom=connectivity
 --------------------------------------

 99/5=1,9=1/99;
 --------------
 Structure: 183
 --------------
 Charge =  0 Multiplicity = 1

                         Standard orientation:
 ---------------------------------------------------------------------
 Center     Atomic      Atomic             Coordinates (Angstroms)
 Number     Number       Type             X           Y           Z
 ---------------------------------------------------------------------
      1          1           0       -3.231065   -1.192773   -0.503204
      2          6           0       -2.235666   -0.768180   -0.656666
      3          6           0       -1.622312   -0.284668    0.656763
      4          1           0       -2.347035    0.049047   -1.375728
      5          1           0       -1.616011   -1.537632   -1.123767
      6          1           0       -2.258401    0.479596    1.116865
      7         14           0        0.090732    0.423061    0.492972
      8          1           0       -1.569287   -1.109429    1.375391
      9          8           0        0.154142    1.741825   -0.525213
     10          8           0        1.033022   -0.809604   -0.046188
     11          1           0        0.629538    0.950783    1.772800
     12          1           0       -0.199401    1.635977   -1.409023
     13          6           0        2.426327   -0.709572   -0.226045
     14          1           0        2.806588   -1.689374   -0.520296
     15          1           0        2.929180   -0.405637    0.699980
     16          1           0        2.678244    0.013340   -1.007727
 ---------------------------------------------------------------------

 SCF Done:  E(RPBE1PBE) =  -560.061123043     A.U. after   12 cycles

 The electronic state is 1-A.
 Alpha  occ. eigenvalues --  -66.25610 -19.20130 -19.20106 -10.26483 -10.21751
 Alpha  occ. eigenvalues --  -10.20943  -5.33224  -3.66750  -3.66642  -3.66497
 Alpha  occ. eigenvalues --   -1.04379  -1.01982  -0.78250  -0.70565  -0.64091
 Alpha  occ. eigenvalues --   -0.56461  -0.51116  -0.46882  -0.46651  -0.45984
 Alpha  occ. eigenvalues --   -0.43593  -0.41012  -0.38856  -0.37251  -0.36502
 Alpha  occ. eigenvalues --   -0.35516  -0.31904  -0.30488  -0.29756
 Alpha virt. eigenvalues --    0.02304   0.05483   0.06002   0.07982   0.08960
 Alpha virt. eigenvalues --    0.10142   0.10804   0.11349   0.12285   0.13481
 Alpha virt. eigenvalues --    0.13955   0.15215   0.16022   0.16475   0.19257

 Mulliken atomic charges:
              1
     1  H    0.130206
     2  C   -0.393124
     3  C   -0.304161
     4  H    0.106030
     5  H    0.142355
     6  H    0.121685
     7  Si   0.542548
     8  H    0.118191
     9  O   -0.536967
    10  O   -0.338310
    11  H   -0.061732
    12  H    0.317750
    13  C   -0.211425
    14  H    0.128854
    15  H    0.117593
    16  H    0.120508
 Sum of Mulliken atomic charges =   0.00000

 Dipole moment (field-independent basis, Debye):
    X=             -0.2853    Y=             -0.6357    Z=             -0.8492  Tot=              1.0985
 Quadrupole moment (field-independent basis, Debye-Ang):
   XX=            -41.1244   YY=            -49.3949   ZZ=            -42.8538
   XY=             -1.6665   XZ=             -0.2081   YZ=             -1.7594

 Normal termination of Gaussian 09 at Fri Aug 10 00:06:41 2018.
