 Gaussian 09, Revision C.01,
 Gaussian 09:  EM64L-G09RevC.01 23-Sep-2011

 --------------------------------------
 #SP PBE1PBE/Def2TZVP geom=connectivity
 --------------------------------------

 99/5=1,9=1/99;
 --------------
 Structure: 144
 --------------
 Charge =  0 Multiplicity = 1

                         Standard orientation:
 ---------------------------------------------------------------------
 Center     Atomic      Atomic             Coordinates (Angstroms)
 Number     Number       Type             X           Y           Z
 ---------------------------------------------------------------------
      1          1           0       -3.229558   -1.207445   -0.458074
      2          6           0       -2.234729   -0.788622   -0.629976
      3          6           0       -1.621219   -0.249197    0.661423
      4          1           0       -2.347421   -0.002726   -1.382958
      5          1           0       -1.614446   -1.576482   -1.064414
      6          1           0       -2.257935    0.533164    1.089098
      7         14           0        0.090925    0.452873    0.466781
      8          1           0       -1.566863   -1.042704    1.414325
      9          8           0        0.149637    1.668112   -0.556251
     10          8           0        1.034333   -0.800477   -0.020212
     11          1           0        0.629817    1.034960    1.722779
     12          1           0       -0.204334    1.524282   -1.435545
     13          6           0        2.427426   -0.706595   -0.204965
     14          1           0        2.808648   -1.697560   -0.457654
     15          1           0        2.930430   -0.363128    0.707053
     16          1           0        2.678094   -0.017177   -1.016728
 ---------------------------------------------------------------------

 SCF Done:  E(RPBE1PBE) =  -560.059094326     A.U. after   12 cycles

 The electronic state is 1-A.
 Alpha  occ. eigenvalues --  -66.24615 -19.20585 -19.19735 -10.26350 -10.21678
 Alpha  occ. eigenvalues --  -10.20618  -5.32452  -3.65982  -3.65861  -3.65713
 Alpha  occ. eigenvalues --   -1.05045  -1.02898  -0.78083  -0.70388  -0.63954
 Alpha  occ. eigenvalues --   -0.57542  -0.51320  -0.46746  -0.46542  -0.45989
 Alpha  occ. eigenvalues --   -0.43486  -0.40749  -0.39844  -0.37250  -0.37036
 Alpha  occ. eigenvalues --   -0.35876  -0.31778  -0.30297  -0.29458
 Alpha virt. eigenvalues --    0.02256   0.05738   0.06161   0.08120   0.09015
 Alpha virt. eigenvalues --    0.10270   0.10998   0.11603   0.12373   0.13524
 Alpha virt. eigenvalues --    0.14368   0.15299   0.16290   0.16800   0.19410

 Mulliken atomic charges:
              1
     1  H    0.130279
     2  C   -0.394778
     3  C   -0.310980
     4  H    0.103574
     5  H    0.142942
     6  H    0.119984
     7  Si   0.525008
     8  H    0.116880
     9  O   -0.494568
    10  O   -0.342466
    11  H   -0.069659
    12  H    0.321441
    13  C   -0.210916
    14  H    0.128487
    15  H    0.117495
    16  H    0.117277
 Sum of Mulliken atomic charges =   0.00000

 Dipole moment (field-independent basis, Debye):
    X=             -0.2770    Y=             -0.4101    Z=             -1.0385  Tot=              1.1504
 Quadrupole moment (field-independent basis, Debye-Ang):
   XX=            -41.3392   YY=            -48.9436   ZZ=            -42.8661
   XY=             -1.6011   XZ=             -0.1875   YZ=             -1.7515

 Normal termination of Gaussian 09 at Fri Aug 10 02:19:26 2018.
