 Gaussian 09, Revision C.01,
 Gaussian 09:  EM64L-G09RevC.01 23-Sep-2011

 --------------------------------------
 #SP PBE1PBE/Def2TZVP geom=connectivity
 --------------------------------------

 99/5=1,9=1/99;
 --------------
 Structure: 136
 --------------
 Charge =  0 Multiplicity = 1

                         Standard orientation:
 ---------------------------------------------------------------------
 Center     Atomic      Atomic             Coordinates (Angstroms)
 Number     Number       Type             X           Y           Z
 ---------------------------------------------------------------------
      1          1           0       -3.229125   -1.210541   -0.448557
      2          6           0       -2.234438   -0.792970   -0.624284
      3          6           0       -1.620912   -0.241991    0.662221
      4          1           0       -2.347453   -0.013784   -1.384159
      5          1           0       -1.613988   -1.584458   -1.051833
      6          1           0       -2.257794    0.543935    1.083058
      7         14           0        0.091006    0.458819    0.461159
      8          1           0       -1.566231   -1.028804    1.422091
      9          8           0        0.148269    1.653258   -0.562407
     10          8           0        1.034707   -0.798513   -0.014877
     11          1           0        0.629897    1.052125    1.711897
     12          1           0       -0.205705    1.501807   -1.439381
     13          6           0        2.427749   -0.705871   -0.200638
     14          1           0        2.809221   -1.698920   -0.444620
     15          1           0        2.930776   -0.354223    0.708245
     16          1           0        2.678114   -0.023575   -1.018489
 ---------------------------------------------------------------------

 SCF Done:  E(RPBE1PBE) =  -560.057659910     A.U. after   12 cycles

 The electronic state is 1-A.
 Alpha  occ. eigenvalues --  -66.24402 -19.20657 -19.19663 -10.26325 -10.21664
 Alpha  occ. eigenvalues --  -10.20552  -5.32295  -3.65827  -3.65701  -3.65551
 Alpha  occ. eigenvalues --   -1.05341  -1.02968  -0.78050  -0.70355  -0.63930
 Alpha  occ. eigenvalues --   -0.57802  -0.51347  -0.46727  -0.46525  -0.45996
 Alpha  occ. eigenvalues --   -0.43469  -0.40706  -0.40053  -0.37443  -0.37021
 Alpha  occ. eigenvalues --   -0.35885  -0.31745  -0.30257  -0.29395
 Alpha virt. eigenvalues --    0.02249   0.05784   0.06194   0.08147   0.09029
 Alpha virt. eigenvalues --    0.10293   0.11032   0.11647   0.12388   0.13530
 Alpha virt. eigenvalues --    0.14450   0.15316   0.16345   0.16869   0.19441

 Mulliken atomic charges:
              1
     1  H    0.130297
     2  C   -0.395108
     3  C   -0.312512
     4  H    0.103100
     5  H    0.143059
     6  H    0.119645
     7  Si   0.520934
     8  H    0.116616
     9  O   -0.484954
    10  O   -0.343406
    11  H   -0.071331
    12  H    0.321973
    13  C   -0.210870
    14  H    0.128425
    15  H    0.117489
    16  H    0.116643
 Sum of Mulliken atomic charges =   0.00000

 Dipole moment (field-independent basis, Debye):
    X=             -0.2747    Y=             -0.3682    Z=             -1.0770  Tot=              1.1709
 Quadrupole moment (field-independent basis, Debye-Ang):
   XX=            -41.3788   YY=            -48.8570   ZZ=            -42.8710
   XY=             -1.5881   XZ=             -0.1835   YZ=             -1.7504

 Normal termination of Gaussian 09 at Fri Aug 10 01:27:34 2018.
