 Gaussian 09, Revision C.01,
 Gaussian 09:  EM64L-G09RevC.01 23-Sep-2011

 --------------------------------------
 #SP PBE1PBE/Def2TZVP geom=connectivity
 --------------------------------------

 99/5=1,9=1/99;
 --------------
 Structure: 195
 --------------
 Charge =  0 Multiplicity = 1

                         Standard orientation:
 ---------------------------------------------------------------------
 Center     Atomic      Atomic             Coordinates (Angstroms)
 Number     Number       Type             X           Y           Z
 ---------------------------------------------------------------------
      1          1           0       -3.231465   -1.188194   -0.516561
      2          6           0       -2.235902   -0.762014   -0.664458
      3          6           0       -1.622605   -0.295429    0.655107
      4          1           0       -2.346887    0.064320   -1.373096
      5          1           0       -1.616423   -1.525672   -1.141198
      6          1           0       -2.258520    0.463136    1.124780
      7         14           0        0.090696    0.413760    0.500594
      8          1           0       -1.569967   -1.129271    1.363207
      9          8           0        0.155304    1.764497   -0.515385
     10          8           0        1.032671   -0.812265   -0.054034
     11          1           0        0.629465    0.925002    1.787109
     12          1           0       -0.198129    1.670003   -1.400525
     13          6           0        2.426039   -0.710414   -0.232383
     14          1           0        2.806027   -1.686524   -0.538998
     15          1           0        2.928840   -0.418435    0.697509
     16          1           0        2.678320    0.022287   -1.004777
 ---------------------------------------------------------------------

 SCF Done:  E(RPBE1PBE) =  -560.060343240     A.U. after   12 cycles

 The electronic state is 1-A.
 Alpha  occ. eigenvalues --  -66.25897 -19.20222 -19.19976 -10.26526 -10.21774
 Alpha  occ. eigenvalues --  -10.21042  -5.33456  -3.66981  -3.66876  -3.66730
 Alpha  occ. eigenvalues --   -1.04359  -1.01540  -0.78303  -0.70621  -0.64137
 Alpha  occ. eigenvalues --   -0.56175  -0.51013  -0.46930  -0.46690  -0.45990
 Alpha  occ. eigenvalues --   -0.43629  -0.41098  -0.38595  -0.37260  -0.36445
 Alpha  occ. eigenvalues --   -0.35283  -0.31918  -0.30539  -0.29839
 Alpha virt. eigenvalues --    0.02301   0.05394   0.05949   0.07938   0.08940
 Alpha virt. eigenvalues --    0.10096   0.10732   0.11261   0.12256   0.13457
 Alpha virt. eigenvalues --    0.13835   0.15182   0.15933   0.16383   0.19208

 Mulliken atomic charges:
              1
     1  H    0.130192
     2  C   -0.392639
     3  C   -0.302247
     4  H    0.106794
     5  H    0.142178
     6  H    0.122206
     7  Si   0.546971
     8  H    0.118592
     9  O   -0.548760
    10  O   -0.337163
    11  H   -0.059369
    12  H    0.316770
    13  C   -0.211641
    14  H    0.128978
    15  H    0.117634
    16  H    0.121504
 Sum of Mulliken atomic charges =   0.00000

 Dipole moment (field-independent basis, Debye):
    X=             -0.2874    Y=             -0.7104    Z=             -0.7940  Tot=              1.1035
 Quadrupole moment (field-independent basis, Debye-Ang):
   XX=            -41.0570   YY=            -49.5438   ZZ=            -42.8464
   XY=             -1.6870   XZ=             -0.2144   YZ=             -1.7663

 Normal termination of Gaussian 09 at Fri Aug 10 01:23:16 2018.
