 Gaussian 09, Revision C.01,
 Gaussian 09:  EM64L-G09RevC.01 23-Sep-2011

 --------------------------------------
 #SP PBE1PBE/Def2TZVP geom=connectivity
 --------------------------------------

 99/5=1,9=1/99;
 --------------
 Structure: 194
 --------------
 Charge =  0 Multiplicity = 1

                         Standard orientation:
 ---------------------------------------------------------------------
 Center     Atomic      Atomic             Coordinates (Angstroms)
 Number     Number       Type             X           Y           Z
 ---------------------------------------------------------------------
      1          1           0       -3.231307   -1.188811   -0.515502
      2          6           0       -2.235788   -0.762684   -0.663843
      3          6           0       -1.622490   -0.294768    0.655250
      4          1           0       -2.346869    0.062954   -1.373277
      5          1           0       -1.616254   -1.526747   -1.139864
      6          1           0       -2.258459    0.464193    1.124210
      7         14           0        0.090742    0.414425    0.499997
      8          1           0       -1.569755   -1.127921    1.364154
      9          8           0        0.154763    1.763067   -0.516040
     10          8           0        1.032810   -0.812050   -0.053476
     11          1           0        0.629506    0.926959    1.786000
     12          1           0       -0.198691    1.667685   -1.401077
     13          6           0        2.426162   -0.710246   -0.231968
     14          1           0        2.806229   -1.686617   -0.537651
     15          1           0        2.928967   -0.417322    0.697625
     16          1           0        2.678353    0.021731   -1.005078
 ---------------------------------------------------------------------

 SCF Done:  E(RPBE1PBE) =  -560.060414797     A.U. after   12 cycles

 The electronic state is 1-A.
 Alpha  occ. eigenvalues --  -66.25877 -19.20215 -19.19988 -10.26524 -10.21773
 Alpha  occ. eigenvalues --  -10.21034  -5.33440  -3.66965  -3.66860  -3.66714
 Alpha  occ. eigenvalues --   -1.04359  -1.01572  -0.78299  -0.70618  -0.64133
 Alpha  occ. eigenvalues --   -0.56193  -0.51022  -0.46928  -0.46688  -0.45989
 Alpha  occ. eigenvalues --   -0.43627  -0.41091  -0.38612  -0.37260  -0.36447
 Alpha  occ. eigenvalues --   -0.35300  -0.31919  -0.30537  -0.29834
 Alpha virt. eigenvalues --    0.02301   0.05401   0.05952   0.07941   0.08942
 Alpha virt. eigenvalues --    0.10098   0.10738   0.11267   0.12257   0.13459
 Alpha virt. eigenvalues --    0.13843   0.15184   0.15940   0.16389   0.19212

 Mulliken atomic charges:
              1
     1  H    0.130191
     2  C   -0.392672
     3  C   -0.302376
     4  H    0.106734
     5  H    0.142186
     6  H    0.122171
     7  Si   0.546689
     8  H    0.118554
     9  O   -0.547953
    10  O   -0.337234
    11  H   -0.059537
    12  H    0.316832
    13  C   -0.211638
    14  H    0.128974
    15  H    0.117639
    16  H    0.121438
 Sum of Mulliken atomic charges =   0.00000

 Dipole moment (field-independent basis, Debye):
    X=             -0.2864    Y=             -0.7055    Z=             -0.7981  Tot=              1.1031
 Quadrupole moment (field-independent basis, Debye-Ang):
   XX=            -41.0607   YY=            -49.5346   ZZ=            -42.8473
   XY=             -1.6849   XZ=             -0.2136   YZ=             -1.7658

 Normal termination of Gaussian 09 at Fri Aug 10 01:16:53 2018.
