 Gaussian 09, Revision C.01,
 Gaussian 09:  EM64L-G09RevC.01 23-Sep-2011

 --------------------------------------
 #SP PBE1PBE/Def2TZVP geom=connectivity
 --------------------------------------

 99/5=1,9=1/99;
 --------------
 Structure: 188
 --------------
 Charge =  0 Multiplicity = 1

                         Standard orientation:
 ---------------------------------------------------------------------
 Center     Atomic      Atomic             Coordinates (Angstroms)
 Number     Number       Type             X           Y           Z
 ---------------------------------------------------------------------
      1          1           0       -3.231185   -1.191103   -0.508515
      2          6           0       -2.235731   -0.765850   -0.659776
      3          6           0       -1.622393   -0.289052    0.656113
      4          1           0       -2.346972    0.055015   -1.374703
      5          1           0       -1.616136   -1.532998   -1.130729
      6          1           0       -2.258422    0.472946    1.120040
      7         14           0        0.090738    0.419306    0.495992
      8          1           0       -1.569497   -1.117442    1.370565
      9          8           0        0.154451    1.751249   -0.521086
     10          8           0        1.032920   -0.810721   -0.049345
     11          1           0        0.629534    0.940491    1.778500
     12          1           0       -0.199129    1.649729   -1.406420
     13          6           0        2.426246   -0.709935   -0.228620
     14          1           0        2.806414   -1.688279   -0.527801
     15          1           0        2.929083   -0.410742    0.698956
     16          1           0        2.678284    0.016891   -1.006624
 ---------------------------------------------------------------------

 SCF Done:  E(RPBE1PBE) =  -560.060875619     A.U. after   12 cycles

 The electronic state is 1-A.
 Alpha  occ. eigenvalues --  -66.25726 -19.20154 -19.20078 -10.26501 -10.21760
 Alpha  occ. eigenvalues --  -10.20982  -5.33318  -3.66843  -3.66736  -3.66591
 Alpha  occ. eigenvalues --   -1.04362  -1.01789  -0.78271  -0.70588  -0.64108
 Alpha  occ. eigenvalues --   -0.56328  -0.51073  -0.46901  -0.46667  -0.45985
 Alpha  occ. eigenvalues --   -0.43608  -0.41044  -0.38744  -0.37256  -0.36472
 Alpha  occ. eigenvalues --   -0.35423  -0.31911  -0.30509  -0.29789
 Alpha virt. eigenvalues --    0.02295   0.05447   0.05980   0.07964   0.08949
 Alpha virt. eigenvalues --    0.10123   0.10776   0.11313   0.12273   0.13471
 Alpha virt. eigenvalues --    0.13906   0.15201   0.15983   0.16435   0.19237

 Mulliken atomic charges:
              1
     1  H    0.130200
     2  C   -0.392935
     3  C   -0.303352
     4  H    0.106324
     5  H    0.142280
     6  H    0.121897
     7  Si   0.544375
     8  H    0.118347
     9  O   -0.541981
    10  O   -0.337836
    11  H   -0.060777
    12  H    0.317538
    13  C   -0.211511
    14  H    0.128907
    15  H    0.117618
    16  H    0.120906
 Sum of Mulliken atomic charges =   0.00000

 Dipole moment (field-independent basis, Debye):
    X=             -0.2856    Y=             -0.6662    Z=             -0.8283  Tot=              1.1006
 Quadrupole moment (field-independent basis, Debye-Ang):
   XX=            -41.0980   YY=            -49.4577   ZZ=            -42.8486
   XY=             -1.6746   XZ=             -0.2105   YZ=             -1.7641

 Normal termination of Gaussian 09 at Fri Aug 10 00:38:23 2018.
