 Gaussian 09, Revision C.01,
 Gaussian 09:  EM64L-G09RevC.01 23-Sep-2011

 --------------------------------------
 #SP PBE1PBE/Def2TZVP geom=connectivity
 --------------------------------------

 99/5=1,9=1/99;
 -------------
 Structure: 12
 -------------
 Charge =  0 Multiplicity = 1

                         Standard orientation:
 ---------------------------------------------------------------------
 Center     Atomic      Atomic             Coordinates (Angstroms)
 Number     Number       Type             X           Y           Z
 ---------------------------------------------------------------------
      1          1           0        3.224851   -1.247490    0.286702
      2          6           0        2.231738   -0.857776    0.524398
      3          6           0        1.617842   -0.120531   -0.665008
      4          1           0        2.348376   -0.200107    1.391105
      5          1           0        1.609543   -1.702135    0.831222
      6          1           0        2.256463    0.717286   -0.966052
      7         14           0       -0.091584    0.547553   -0.358819
      8          1           0        1.559514   -0.785908   -1.532960
      9          8           0       -0.135471    1.414814    0.643148
     10          8           0       -1.038385   -0.763782   -0.072405
     11          1           0       -0.630659    1.321149   -1.506735
     12          1           0        0.219446    1.134095    1.487275
     13          6           0       -2.430834   -0.695778    0.127886
     14          1           0       -2.814969   -1.712942    0.222815
     15          1           0       -2.934238   -0.211927   -0.717828
     16          1           0       -2.677779   -0.141500    1.038317
 ---------------------------------------------------------------------

 SCF Done:  E(RPBE1PBE) =  -559.947387551     A.U. after   12 cycles

 The electronic state is 1-A.
 Alpha  occ. eigenvalues --  -66.20217 -19.21239 -19.18540 -10.25966 -10.21494
 Alpha  occ. eigenvalues --  -10.19503  -5.29781  -3.63640  -3.62941  -3.62778
 Alpha  occ. eigenvalues --   -1.11887  -1.02492  -0.77582  -0.69866  -0.64007
 Alpha  occ. eigenvalues --   -0.61732  -0.51546  -0.47698  -0.46726  -0.45910
 Alpha  occ. eigenvalues --   -0.43724  -0.42971  -0.41601  -0.39420  -0.36197
 Alpha  occ. eigenvalues --   -0.35605  -0.31006  -0.29581  -0.28293
 Alpha virt. eigenvalues --    0.01725   0.06202   0.06690   0.08515   0.09140
 Alpha virt. eigenvalues --    0.10556   0.11441   0.12113   0.12574   0.13492
 Alpha virt. eigenvalues --    0.15302   0.15724   0.17148   0.17751   0.19813

 Mulliken atomic charges:
              1
     1  H    0.130885
     2  C   -0.401761
     3  C   -0.341732
     4  H    0.096261
     5  H    0.145415
     6  H    0.114315
     7  Si   0.446371
     8  H    0.112980
     9  O   -0.313406
    10  O   -0.364867
    11  H   -0.101046
    12  H    0.336365
    13  C   -0.211767
    14  H    0.127604
    15  H    0.117745
    16  H    0.106637
 Sum of Mulliken atomic charges =   0.00000

 Dipole moment (field-independent basis, Debye):
    X=              0.2530    Y=              0.1283    Z=              1.7695  Tot=              1.7921
 Quadrupole moment (field-independent basis, Debye-Ang):
   XX=            -41.9700   YY=            -47.7683   ZZ=            -42.8142
   XY=              1.4232   XZ=             -0.1400   YZ=              1.8559

 Normal termination of Gaussian 09 at Thu Aug  9 22:57:55 2018.
