 Gaussian 09, Revision C.01,
 Gaussian 09:  EM64L-G09RevC.01 23-Sep-2011

 --------------------------------------
 #SP PBE1PBE/Def2TZVP geom=connectivity
 --------------------------------------

 99/5=1,9=1/99;
 --------------
 Structure: 198
 --------------
 Charge =  0 Multiplicity = 1

                         Standard orientation:
 ---------------------------------------------------------------------
 Center     Atomic      Atomic             Coordinates (Angstroms)
 Number     Number       Type             X           Y           Z
 ---------------------------------------------------------------------
      1          1           0       -3.231716   -1.186982   -0.519717
      2          6           0       -2.236077   -0.760532   -0.666315
      3          6           0       -1.622772   -0.297909    0.654640
      4          1           0       -2.346891    0.067890   -1.372539
      5          1           0       -1.616696   -1.522892   -1.145256
      6          1           0       -2.258589    0.459382    1.126498
      7         14           0        0.090652    0.411451    0.502290
      8          1           0       -1.570306   -1.133828    1.360300
      9          8           0        0.156089    1.770496   -0.512737
     10          8           0        1.032457   -0.813099   -0.055874
     11          1           0        0.629437    0.918840    1.790324
     12          1           0       -0.197385    1.678478   -1.399151
     13          6           0        2.425850   -0.710952   -0.233852
     14          1           0        2.805697   -1.686221   -0.543303
     15          1           0        2.928650   -0.421775    0.696916
     16          1           0        2.678290    0.023966   -1.004087
 ---------------------------------------------------------------------

 SCF Done:  E(RPBE1PBE) =  -560.060062058     A.U. after   12 cycles

 The electronic state is 1-A.
 Alpha  occ. eigenvalues --  -66.25965 -19.20252 -19.19947 -10.26537 -10.21781
 Alpha  occ. eigenvalues --  -10.21068  -5.33513  -3.67038  -3.66933  -3.66786
 Alpha  occ. eigenvalues --   -1.04359  -1.01406  -0.78317  -0.70635  -0.64148
 Alpha  occ. eigenvalues --   -0.56094  -0.50979  -0.46943  -0.46700  -0.45992
 Alpha  occ. eigenvalues --   -0.43639  -0.41116  -0.38537  -0.37254  -0.36437
 Alpha  occ. eigenvalues --   -0.35220  -0.31919  -0.30553  -0.29859
 Alpha virt. eigenvalues --    0.02290   0.05372   0.05934   0.07927   0.08932
 Alpha virt. eigenvalues --    0.10082   0.10712   0.11239   0.12248   0.13449
 Alpha virt. eigenvalues --    0.13807   0.15172   0.15904   0.16358   0.19195

 Mulliken atomic charges:
              1
     1  H    0.130192
     2  C   -0.392521
     3  C   -0.301769
     4  H    0.106986
     5  H    0.142135
     6  H    0.122349
     7  Si   0.547932
     8  H    0.118706
     9  O   -0.551725
    10  O   -0.336888
    11  H   -0.058818
    12  H    0.316696
    13  C   -0.211685
    14  H    0.129011
    15  H    0.117655
    16  H    0.121743
 Sum of Mulliken atomic charges =   0.00000

 Dipole moment (field-independent basis, Debye):
    X=             -0.2886    Y=             -0.7304    Z=             -0.7824  Tot=              1.1086
 Quadrupole moment (field-independent basis, Debye-Ang):
   XX=            -41.0411   YY=            -49.5853   ZZ=            -42.8426
   XY=             -1.6938   XZ=             -0.2169   YZ=             -1.7709

 Normal termination of Gaussian 09 at Fri Aug 10 01:42:26 2018.
