 Gaussian 09, Revision C.01,
 Gaussian 09:  EM64L-G09RevC.01 23-Sep-2011

 --------------------------------------
 #SP PBE1PBE/Def2TZVP geom=connectivity
 --------------------------------------

 99/5=1,9=1/99;
 --------------
 Structure: 128
 --------------
 Charge =  0 Multiplicity = 1

                         Standard orientation:
 ---------------------------------------------------------------------
 Center     Atomic      Atomic             Coordinates (Angstroms)
 Number     Number       Type             X           Y           Z
 ---------------------------------------------------------------------
      1          1           0       -3.228819   -1.213392   -0.438644
      2          6           0       -2.234245   -0.797234   -0.618323
      3          6           0       -1.620695   -0.234303    0.662985
      4          1           0       -2.347522   -0.025100   -1.385323
      5          1           0       -1.613667   -1.592486   -1.038642
      6          1           0       -2.257705    0.555321    1.076646
      7         14           0        0.091043    0.465009    0.455282
      8          1           0       -1.565750   -1.014078    1.430058
      9          8           0        0.147363    1.637455   -0.568772
     10          8           0        1.034971   -0.796440   -0.009273
     11          1           0        0.629945    1.069920    1.700445
     12          1           0       -0.206677    1.477861   -1.444274
     13          6           0        2.427970   -0.705201   -0.196042
     14          1           0        2.809636   -1.700368   -0.430919
     15          1           0        2.931023   -0.345091    0.709507
     16          1           0        2.678088   -0.030405   -1.020166
 ---------------------------------------------------------------------

 SCF Done:  E(RPBE1PBE) =  -560.055708792     A.U. after   12 cycles

 The electronic state is 1-A.
 Alpha  occ. eigenvalues --  -66.24173 -19.20735 -19.19584 -10.26298 -10.21650
 Alpha  occ. eigenvalues --  -10.20482  -5.32128  -3.65664  -3.65530  -3.65379
 Alpha  occ. eigenvalues --   -1.05675  -1.02997  -0.78016  -0.70318  -0.63906
 Alpha  occ. eigenvalues --   -0.58065  -0.51366  -0.46708  -0.46508  -0.46004
 Alpha  occ. eigenvalues --   -0.43451  -0.40673  -0.40259  -0.37675  -0.36983
 Alpha  occ. eigenvalues --   -0.35883  -0.31705  -0.30212  -0.29328
 Alpha virt. eigenvalues --    0.02230   0.05829   0.06226   0.08175   0.09040
 Alpha virt. eigenvalues --    0.10317   0.11066   0.11691   0.12406   0.13534
 Alpha virt. eigenvalues --    0.14535   0.15331   0.16398   0.16941   0.19471

 Mulliken atomic charges:
              1
     1  H    0.130320
     2  C   -0.395481
     3  C   -0.314134
     4  H    0.102597
     5  H    0.143190
     6  H    0.119281
     7  Si   0.516456
     8  H    0.116345
     9  O   -0.474814
    10  O   -0.344450
    11  H   -0.073079
    12  H    0.322797
    13  C   -0.210816
    14  H    0.128353
    15  H    0.117472
    16  H    0.115963
 Sum of Mulliken atomic charges =   0.00000

 Dipole moment (field-independent basis, Debye):
    X=             -0.2732    Y=             -0.3248    Z=             -1.1188  Tot=              1.1966
 Quadrupole moment (field-independent basis, Debye-Ang):
   XX=            -41.4230   YY=            -48.7683   ZZ=            -42.8714
   XY=             -1.5750   XZ=             -0.1793   YZ=             -1.7514

 Normal termination of Gaussian 09 at Fri Aug 10 00:35:40 2018.
