 Gaussian 09, Revision C.01,
 Gaussian 09:  EM64L-G09RevC.01 23-Sep-2011

 --------------------------------------
 #SP PBE1PBE/Def2TZVP geom=connectivity
 --------------------------------------

 99/5=1,9=1/99;
 --------------
 Structure: 101
 --------------
 Charge =  0 Multiplicity = 1

                         Standard orientation:
 ---------------------------------------------------------------------
 Center     Atomic      Atomic             Coordinates (Angstroms)
 Number     Number       Type             X           Y           Z
 ---------------------------------------------------------------------
      1          1           0       -3.227788   -1.222711   -0.404968
      2          6           0       -2.233589   -0.811635   -0.597929
      3          6           0       -1.619954   -0.208627    0.664971
      4          1           0       -2.347731   -0.063846   -1.388560
      5          1           0       -1.612592   -1.619144   -0.993532
      6          1           0       -2.257381    0.593038    1.054100
      7         14           0        0.091190    0.485111    0.434884
      8          1           0       -1.564139   -0.964092    1.455936
      9          8           0        0.144247    1.585942   -0.588757
     10          8           0        1.035862   -0.789515    0.009454
     11          1           0        0.630133    1.128898    1.660380
     12          1           0       -0.210017    1.398902   -1.458717
     13          6           0        2.428721   -0.703133   -0.180639
     14          1           0        2.811026   -1.704857   -0.384565
     15          1           0        2.931862   -0.314632    0.713048
     16          1           0        2.678024   -0.054152   -1.025484
 ---------------------------------------------------------------------

 SCF Done:  E(RPBE1PBE) =  -560.045583877     A.U. after   13 cycles

 The electronic state is 1-A.
 Alpha  occ. eigenvalues --  -66.23379 -19.20961 -19.19333 -10.26212 -10.21606
 Alpha  occ. eigenvalues --  -10.20254  -5.31574  -3.65133  -3.64955  -3.64799
 Alpha  occ. eigenvalues --   -1.06955  -1.02966  -0.77907  -0.70204  -0.63839
 Alpha  occ. eigenvalues --   -0.58957  -0.51407  -0.46685  -0.46477  -0.46032
 Alpha  occ. eigenvalues --   -0.43406  -0.41069  -0.40465  -0.38485  -0.36822
 Alpha  occ. eigenvalues --   -0.35842  -0.31561  -0.30065  -0.29100
 Alpha virt. eigenvalues --    0.02150   0.05960   0.06332   0.08265   0.09073
 Alpha virt. eigenvalues --    0.10389   0.11169   0.11820   0.12456   0.13541
 Alpha virt. eigenvalues --    0.14802   0.15380   0.16572   0.17166   0.19567

 Mulliken atomic charges:
              1
     1  H    0.130413
     2  C   -0.396762
     3  C   -0.319817
     4  H    0.100982
     5  H    0.143636
     6  H    0.118103
     7  Si   0.500611
     8  H    0.115483
     9  O   -0.439520
    10  O   -0.348247
    11  H   -0.079075
    12  H    0.325604
    13  C   -0.210763
    14  H    0.128143
    15  H    0.117462
    16  H    0.113746
 Sum of Mulliken atomic charges =   0.00000

 Dipole moment (field-independent basis, Debye):
    X=             -0.2676    Y=             -0.1933    Z=             -1.2617  Tot=              1.3041
 Quadrupole moment (field-independent basis, Debye-Ang):
   XX=            -41.5625   YY=            -48.4959   ZZ=            -42.8702
   XY=             -1.5344   XZ=             -0.1671   YZ=             -1.7619

 Normal termination of Gaussian 09 at Thu Aug  9 22:46:17 2018.
