 Gaussian 09, Revision C.01,
 Gaussian 09:  EM64L-G09RevC.01 23-Sep-2011

 --------------------------------------
 #SP PBE1PBE/Def2TZVP geom=connectivity
 --------------------------------------

 99/5=1,9=1/99;
 --------------
 Structure: 137
 --------------
 Charge =  0 Multiplicity = 1

                         Standard orientation:
 ---------------------------------------------------------------------
 Center     Atomic      Atomic             Coordinates (Angstroms)
 Number     Number       Type             X           Y           Z
 ---------------------------------------------------------------------
      1          1           0       -3.229275   -1.209980   -0.449705
      2          6           0       -2.234547   -0.792309   -0.624969
      3          6           0       -1.621020   -0.242703    0.662122
      4          1           0       -2.347475   -0.012332   -1.384046
      5          1           0       -1.614147   -1.583407   -1.053311
      6          1           0       -2.257853    0.542841    1.083746
      7         14           0        0.090961    0.458176    0.461838
      8          1           0       -1.566428   -1.030302    1.421185
      9          8           0        0.148784    1.654703   -0.561813
     10          8           0        1.034577   -0.798742   -0.015460
     11          1           0        0.629859    1.050151    1.713204
     12          1           0       -0.205173    1.504182   -1.438954
     13          6           0        2.427632   -0.706021   -0.201079
     14          1           0        2.809032   -1.698849   -0.446070
     15          1           0        2.930657   -0.355349    0.708181
     16          1           0        2.678079   -0.022905   -1.018220
 ---------------------------------------------------------------------

 SCF Done:  E(RPBE1PBE) =  -560.057832613     A.U. after   12 cycles

 The electronic state is 1-A.
 Alpha  occ. eigenvalues --  -66.24425 -19.20649 -19.19669 -10.26327 -10.21666
 Alpha  occ. eigenvalues --  -10.20559  -5.32312  -3.65844  -3.65718  -3.65569
 Alpha  occ. eigenvalues --   -1.05308  -1.02961  -0.78054  -0.70357  -0.63933
 Alpha  occ. eigenvalues --   -0.57776  -0.51343  -0.46728  -0.46526  -0.45995
 Alpha  occ. eigenvalues --   -0.43470  -0.40711  -0.40030  -0.37420  -0.37025
 Alpha  occ. eigenvalues --   -0.35885  -0.31748  -0.30261  -0.29402
 Alpha virt. eigenvalues --    0.02251   0.05779   0.06191   0.08144   0.09028
 Alpha virt. eigenvalues --    0.10291   0.11028   0.11643   0.12387   0.13530
 Alpha virt. eigenvalues --    0.14441   0.15314   0.16338   0.16862   0.19437

 Mulliken atomic charges:
              1
     1  H    0.130296
     2  C   -0.395072
     3  C   -0.312346
     4  H    0.103158
     5  H    0.143050
     6  H    0.119681
     7  Si   0.521370
     8  H    0.116653
     9  O   -0.485989
    10  O   -0.343309
    11  H   -0.071143
    12  H    0.321898
    13  C   -0.210864
    14  H    0.128427
    15  H    0.117481
    16  H    0.116707
 Sum of Mulliken atomic charges =   0.00000

 Dipole moment (field-independent basis, Debye):
    X=             -0.2757    Y=             -0.3723    Z=             -1.0724  Tot=              1.1682
 Quadrupole moment (field-independent basis, Debye-Ang):
   XX=            -41.3752   YY=            -48.8650   ZZ=            -42.8704
   XY=             -1.5899   XZ=             -0.1842   YZ=             -1.7501

 Normal termination of Gaussian 09 at Fri Aug 10 01:34:02 2018.
