 Gaussian 09, Revision C.01,
 Gaussian 09:  EM64L-G09RevC.01 23-Sep-2011

 --------------------------------------
 #SP PBE1PBE/Def2TZVP geom=connectivity
 --------------------------------------

 99/5=1,9=1/99;
 --------------
 Structure: 142
 --------------
 Charge =  0 Multiplicity = 1

                         Standard orientation:
 ---------------------------------------------------------------------
 Center     Atomic      Atomic             Coordinates (Angstroms)
 Number     Number       Type             X           Y           Z
 ---------------------------------------------------------------------
      1          1           0       -3.229381   -1.208404   -0.455502
      2          6           0       -2.234604   -0.789883   -0.628441
      3          6           0       -1.621092   -0.247342    0.661651
      4          1           0       -2.347415   -0.005781   -1.383273
      5          1           0       -1.614258   -1.578701   -1.061044
      6          1           0       -2.257870    0.535961    1.087506
      7         14           0        0.090968    0.454448    0.465270
      8          1           0       -1.566616   -1.039061    1.416424
      9          8           0        0.149051    1.664283   -0.557831
     10          8           0        1.034487   -0.799948   -0.018804
     11          1           0        0.629857    1.039560    1.719864
     12          1           0       -0.204945    1.518338   -1.436766
     13          6           0        2.427561   -0.706356   -0.203843
     14          1           0        2.808878   -1.697875   -0.454207
     15          1           0        2.930572   -0.360680    0.707336
     16          1           0        2.678118   -0.018832   -1.017245
 ---------------------------------------------------------------------

 SCF Done:  E(RPBE1PBE) =  -560.058753760     A.U. after   12 cycles

 The electronic state is 1-A.
 Alpha  occ. eigenvalues --  -66.24559 -19.20607 -19.19717 -10.26344 -10.21674
 Alpha  occ. eigenvalues --  -10.20599  -5.32410  -3.65940  -3.65818  -3.65670
 Alpha  occ. eigenvalues --   -1.05115  -1.02919  -0.78074  -0.70379  -0.63947
 Alpha  occ. eigenvalues --   -0.57605  -0.51327  -0.46741  -0.46538  -0.45990
 Alpha  occ. eigenvalues --   -0.43482  -0.40736  -0.39899  -0.37294  -0.37037
 Alpha  occ. eigenvalues --   -0.35879  -0.31770  -0.30287  -0.29441
 Alpha virt. eigenvalues --    0.02251   0.05750   0.06170   0.08127   0.09018
 Alpha virt. eigenvalues --    0.10276   0.11007   0.11615   0.12377   0.13526
 Alpha virt. eigenvalues --    0.14390   0.15303   0.16305   0.16818   0.19419

 Mulliken atomic charges:
              1
     1  H    0.130283
     2  C   -0.394868
     3  C   -0.311375
     4  H    0.103441
     5  H    0.142971
     6  H    0.119894
     7  Si   0.523953
     8  H    0.116803
     9  O   -0.492105
    10  O   -0.342707
    11  H   -0.070099
    12  H    0.321635
    13  C   -0.210907
    14  H    0.128473
    15  H    0.117498
    16  H    0.117110
 Sum of Mulliken atomic charges =   0.00000

 Dipole moment (field-independent basis, Debye):
    X=             -0.2760    Y=             -0.3992    Z=             -1.0491  Tot=              1.1559
 Quadrupole moment (field-independent basis, Debye-Ang):
   XX=            -41.3497   YY=            -48.9216   ZZ=            -42.8668
   XY=             -1.5974   XZ=             -0.1862   YZ=             -1.7516

 Normal termination of Gaussian 09 at Fri Aug 10 02:06:32 2018.
