 Gaussian 09, Revision C.01,
 Gaussian 09:  EM64L-G09RevC.01 23-Sep-2011

 --------------------------------------
 #SP PBE1PBE/Def2TZVP geom=connectivity
 --------------------------------------

 99/5=1,9=1/99;
 --------------
 Structure: 131
 --------------
 Charge =  0 Multiplicity = 1

                         Standard orientation:
 ---------------------------------------------------------------------
 Center     Atomic      Atomic             Coordinates (Angstroms)
 Number     Number       Type             X           Y           Z
 ---------------------------------------------------------------------
      1          1           0       -3.229021   -1.212328   -0.442202
      2          6           0       -2.234387   -0.795712   -0.620478
      3          6           0       -1.620821   -0.237045    0.662687
      4          1           0       -2.347533   -0.021062   -1.384958
      5          1           0       -1.613892   -1.589665   -1.043366
      6          1           0       -2.257749    0.551304    1.078897
      7         14           0        0.091014    0.462725    0.457342
      8          1           0       -1.566008   -1.019328    1.427212
      9          8           0        0.148072    1.643621   -0.566266
     10          8           0        1.034803   -0.797320   -0.011290
     11          1           0        0.629940    1.063498    1.704496
     12          1           0       -0.206933    1.486308   -1.443104
     13          6           0        2.427822   -0.705648   -0.197700
     14          1           0        2.809372   -1.700091   -0.435810
     15          1           0        2.930881   -0.348561    0.709042
     16          1           0        2.678061   -0.028196   -1.019606
 ---------------------------------------------------------------------

 SCF Done:  E(RPBE1PBE) =  -560.056486542     A.U. after   12 cycles

 The electronic state is 1-A.
 Alpha  occ. eigenvalues --  -66.24257 -19.20718 -19.19614 -10.26307 -10.21657
 Alpha  occ. eigenvalues --  -10.20510  -5.32189  -3.65723  -3.65592  -3.65442
 Alpha  occ. eigenvalues --   -1.05529  -1.02984  -0.78030  -0.70331  -0.63915
 Alpha  occ. eigenvalues --   -0.57940  -0.51357  -0.46714  -0.46514  -0.46002
 Alpha  occ. eigenvalues --   -0.43458  -0.40681  -0.40187  -0.37584  -0.36996
 Alpha  occ. eigenvalues --   -0.35885  -0.31719  -0.30230  -0.29353
 Alpha virt. eigenvalues --    0.02224   0.05812   0.06212   0.08165   0.09033
 Alpha virt. eigenvalues --    0.10306   0.11052   0.11675   0.12398   0.13531
 Alpha virt. eigenvalues --    0.14506   0.15324   0.16376   0.16910   0.19460

 Mulliken atomic charges:
              1
     1  H    0.130321
     2  C   -0.395343
     3  C   -0.313541
     4  H    0.102760
     5  H    0.143158
     6  H    0.119437
     7  Si   0.518020
     8  H    0.116465
     9  O   -0.478760
    10  O   -0.344053
    11  H   -0.072452
    12  H    0.322728
    13  C   -0.210825
    14  H    0.128377
    15  H    0.117483
    16  H    0.116226
 Sum of Mulliken atomic charges =   0.00000

 Dipole moment (field-independent basis, Debye):
    X=             -0.2756    Y=             -0.3424    Z=             -1.1043  Tot=              1.1886
 Quadrupole moment (field-independent basis, Debye-Ang):
   XX=            -41.4062   YY=            -48.8061   ZZ=            -42.8709
   XY=             -1.5822   XZ=             -0.1793   YZ=             -1.7510

 Normal termination of Gaussian 09 at Fri Aug 10 00:55:10 2018.
