 Gaussian 09, Revision C.01,
 Gaussian 09:  EM64L-G09RevC.01 23-Sep-2011

 --------------------------------------
 #SP PBE1PBE/Def2TZVP geom=connectivity
 --------------------------------------

 99/5=1,9=1/99;
 --------------
 Structure: 165
 --------------
 Charge =  0 Multiplicity = 1

                         Standard orientation:
 ---------------------------------------------------------------------
 Center     Atomic      Atomic             Coordinates (Angstroms)
 Number     Number       Type             X           Y           Z
 ---------------------------------------------------------------------
      1          1           0       -3.230375   -1.199575   -0.482886
      2          6           0       -2.235240   -0.777476   -0.644711
      3          6           0       -1.621806   -0.268591    0.659060
      4          1           0       -2.347225    0.025780   -1.379254
      5          1           0       -1.615298   -1.555402   -1.097163
      6          1           0       -2.258182    0.504006    1.104618
      7         14           0        0.090822    0.436769    0.481297
      8          1           0       -1.568161   -1.079418    1.393328
      9          8           0        0.152169    1.708150   -0.539660
     10          8           0        1.033625   -0.805496   -0.034421
     11          1           0        0.629675    0.989173    1.750647
     12          1           0       -0.202455    1.584834   -1.421041
     13          6           0        2.426831   -0.708195   -0.216530
     14          1           0        2.807534   -1.693251   -0.492074
     15          1           0        2.929760   -0.386328    0.703375
     16          1           0        2.678166   -0.000246   -1.011972
 ---------------------------------------------------------------------

 SCF Done:  E(RPBE1PBE) =  -560.061149575     A.U. after   12 cycles

 The electronic state is 1-A.
 Alpha  occ. eigenvalues --  -66.25169 -19.20348 -19.19936 -10.26421 -10.21718
 Alpha  occ. eigenvalues --  -10.20796  -5.32875  -3.66401  -3.66290  -3.66144
 Alpha  occ. eigenvalues --   -1.04540  -1.02530  -0.78175  -0.70483  -0.64027
 Alpha  occ. eigenvalues --   -0.56927  -0.51230  -0.46815  -0.46598  -0.45983
 Alpha  occ. eigenvalues --   -0.43543  -0.40889  -0.39294  -0.37202  -0.36708
 Alpha  occ. eigenvalues --   -0.35767  -0.31859  -0.30405  -0.29625
 Alpha virt. eigenvalues --    0.02291   0.05606   0.06077   0.08045   0.08987
 Alpha virt. eigenvalues --    0.10203   0.10898   0.11471   0.12326   0.13505
 Alpha virt. eigenvalues --    0.14142   0.15258   0.16148   0.16620   0.19328

 Mulliken atomic charges:
              1
     1  H    0.130240
     2  C   -0.393854
     3  C   -0.307191
     4  H    0.104885
     5  H    0.142635
     6  H    0.120921
     7  Si   0.535071
     8  H    0.117601
     9  O   -0.518334
    10  O   -0.340107
    11  H   -0.065299
    12  H    0.319321
    13  C   -0.211157
    14  H    0.128678
    15  H    0.117537
    16  H    0.119052
 Sum of Mulliken atomic charges =   0.00000

 Dipole moment (field-independent basis, Debye):
    X=             -0.2832    Y=             -0.5300    Z=             -0.9327  Tot=              1.1095
 Quadrupole moment (field-independent basis, Debye-Ang):
   XX=            -41.2216   YY=            -49.1838   ZZ=            -42.8641
   XY=             -1.6376   XZ=             -0.1964   YZ=             -1.7504

 Normal termination of Gaussian 09 at Fri Aug 10 04:34:46 2018.
