 Gaussian 09, Revision C.01,
 Gaussian 09:  EM64L-G09RevC.01 23-Sep-2011

 --------------------------------------
 #SP PBE1PBE/Def2TZVP geom=connectivity
 --------------------------------------

 99/5=1,9=1/99;
 --------------
 Structure: 143
 --------------
 Charge =  0 Multiplicity = 1

                         Standard orientation:
 ---------------------------------------------------------------------
 Center     Atomic      Atomic             Coordinates (Angstroms)
 Number     Number       Type             X           Y           Z
 ---------------------------------------------------------------------
      1          1           0       -3.229408   -1.208013   -0.456936
      2          6           0       -2.234618   -0.789286   -0.629299
      3          6           0       -1.621110   -0.248491    0.661528
      4          1           0       -2.347399   -0.004169   -1.383080
      5          1           0       -1.614286   -1.577538   -1.062952
      6          1           0       -2.257875    0.534256    1.088424
      7         14           0        0.090970    0.453520    0.466112
      8          1           0       -1.566665   -1.041223    1.415239
      9          8           0        0.149119    1.666669   -0.556855
     10          8           0        1.034464   -0.800250   -0.019631
     11          1           0        0.629856    1.036935    1.721496
     12          1           0       -0.204869    1.521911   -1.435990
     13          6           0        2.427543   -0.706443   -0.204526
     14          1           0        2.808839   -1.697635   -0.456214
     15          1           0        2.930550   -0.362003    0.707124
     16          1           0        2.678128   -0.017835   -1.017001
 ---------------------------------------------------------------------

 SCF Done:  E(RPBE1PBE) =  -560.058959560     A.U. after   12 cycles

 The electronic state is 1-A.
 Alpha  occ. eigenvalues --  -66.24592 -19.20595 -19.19729 -10.26348 -10.21676
 Alpha  occ. eigenvalues --  -10.20610  -5.32435  -3.65965  -3.65844  -3.65695
 Alpha  occ. eigenvalues --   -1.05074  -1.02908  -0.78079  -0.70385  -0.63951
 Alpha  occ. eigenvalues --   -0.57567  -0.51324  -0.46745  -0.46541  -0.45989
 Alpha  occ. eigenvalues --   -0.43485  -0.40743  -0.39867  -0.37267  -0.37037
 Alpha  occ. eigenvalues --   -0.35877  -0.31776  -0.30294  -0.29451
 Alpha virt. eigenvalues --    0.02254   0.05743   0.06165   0.08123   0.09016
 Alpha virt. eigenvalues --    0.10272   0.11002   0.11608   0.12374   0.13525
 Alpha virt. eigenvalues --    0.14377   0.15301   0.16297   0.16807   0.19414

 Mulliken atomic charges:
              1
     1  H    0.130280
     2  C   -0.394813
     3  C   -0.311142
     4  H    0.103515
     5  H    0.142951
     6  H    0.119948
     7  Si   0.524588
     8  H    0.116843
     9  O   -0.493560
    10  O   -0.342559
    11  H   -0.069844
    12  H    0.321514
    13  C   -0.210920
    14  H    0.128485
    15  H    0.117502
    16  H    0.117212
 Sum of Mulliken atomic charges =   0.00000

 Dipole moment (field-independent basis, Debye):
    X=             -0.2761    Y=             -0.4060    Z=             -1.0430  Tot=              1.1528
 Quadrupole moment (field-independent basis, Debye-Ang):
   XX=            -41.3428   YY=            -48.9354   ZZ=            -42.8667
   XY=             -1.5993   XZ=             -0.1868   YZ=             -1.7517

 Normal termination of Gaussian 09 at Fri Aug 10 02:12:59 2018.
