 Gaussian 09, Revision C.01,
 Gaussian 09:  EM64L-G09RevC.01 23-Sep-2011

 --------------------------------------
 #SP PBE1PBE/Def2TZVP geom=connectivity
 --------------------------------------

 99/5=1,9=1/99;
 -------------
 Structure: 18
 -------------
 Charge =  0 Multiplicity = 1

                         Standard orientation:
 ---------------------------------------------------------------------
 Center     Atomic      Atomic             Coordinates (Angstroms)
 Number     Number       Type             X           Y           Z
 ---------------------------------------------------------------------
      1          1           0       -3.225063   -1.246189   -0.294451
      2          6           0       -2.231878   -0.854936   -0.529302
      3          6           0       -1.617989   -0.126194    0.665336
      4          1           0       -2.348354   -0.191145   -1.391351
      5          1           0       -1.609767   -1.697188   -0.842031
      6          1           0       -2.256526    0.709559    0.972237
      7         14           0        0.091551    0.543812    0.364022
      8          1           0       -1.559824   -0.797694    1.528570
      9          8           0        0.136118    1.425769   -0.640294
     10          8           0        1.038206   -0.765591    0.068432
     11          1           0        0.630627    1.309207    1.517422
     12          1           0       -0.218834    1.150698   -1.487338
     13          6           0        2.430681   -0.696357   -0.131254
     14          1           0        2.814691   -1.712875   -0.233334
     15          1           0        2.934075   -0.218559    0.717901
     16          1           0        2.677778   -0.135692   -1.037724
 ---------------------------------------------------------------------

 SCF Done:  E(RPBE1PBE) =  -559.957959162     A.U. after   12 cycles

 The electronic state is 1-A.
 Alpha  occ. eigenvalues --  -66.20445 -19.21251 -19.18588 -10.25979 -10.21499
 Alpha  occ. eigenvalues --  -10.19550  -5.29885  -3.63709  -3.63070  -3.62906
 Alpha  occ. eigenvalues --   -1.11549  -1.02524  -0.77601  -0.69884  -0.63950
 Alpha  occ. eigenvalues --   -0.61577  -0.51525  -0.47564  -0.46686  -0.45925
 Alpha  occ. eigenvalues --   -0.43655  -0.42898  -0.41489  -0.39444  -0.36238
 Alpha  occ. eigenvalues --   -0.35621  -0.31042  -0.29610  -0.28345
 Alpha virt. eigenvalues --    0.01746   0.06195   0.06664   0.08503   0.09135
 Alpha virt. eigenvalues --    0.10549   0.11426   0.12098   0.12569   0.13496
 Alpha virt. eigenvalues --    0.15290   0.15692   0.17111   0.17720   0.19800

 Mulliken atomic charges:
              1
     1  H    0.130852
     2  C   -0.401442
     3  C   -0.340183
     4  H    0.096510
     5  H    0.145296
     6  H    0.114546
     7  Si   0.449220
     8  H    0.113122
     9  O   -0.321399
    10  O   -0.363633
    11  H   -0.099541
    12  H    0.335888
    13  C   -0.211639
    14  H    0.127630
    15  H    0.117711
    16  H    0.107065
 Sum of Mulliken atomic charges =   0.00000

 Dipole moment (field-independent basis, Debye):
    X=             -0.2539    Y=              0.1131    Z=             -1.7375  Tot=              1.7596
 Quadrupole moment (field-independent basis, Debye-Ang):
   XX=            -41.9488   YY=            -47.8090   ZZ=            -42.8165
   XY=             -1.4293   XZ=             -0.1408   YZ=             -1.8485

 Normal termination of Gaussian 09 at Thu Aug  9 23:37:57 2018.
