 Gaussian 09, Revision C.01,
 Gaussian 09:  EM64L-G09RevC.01 23-Sep-2011

 --------------------------------------
 #SP PBE1PBE/Def2TZVP geom=connectivity
 --------------------------------------

 99/5=1,9=1/99;
 --------------
 Structure: 153
 --------------
 Charge =  0 Multiplicity = 1

                         Standard orientation:
 ---------------------------------------------------------------------
 Center     Atomic      Atomic             Coordinates (Angstroms)
 Number     Number       Type             X           Y           Z
 ---------------------------------------------------------------------
      1          1           0       -3.229720   -1.204452   -0.468506
      2          6           0       -2.234805   -0.784120   -0.636180
      3          6           0       -1.621341   -0.257523    0.660524
      4          1           0       -2.347294    0.009162   -1.381407
      5          1           0       -1.614605   -1.567770   -1.078284
      6          1           0       -2.257974    0.520698    1.095809
      7         14           0        0.090936    0.446150    0.472969
      8          1           0       -1.567190   -1.058405    1.405590
      9          8           0        0.150038    1.684884   -0.549313
     10          8           0        1.034192   -0.802502   -0.026234
     11          1           0        0.629794    1.015768    1.734686
     12          1           0       -0.203866    1.549766   -1.430015
     13          6           0        2.427319   -0.707033   -0.209914
     14          1           0        2.808408   -1.695527   -0.472299
     15          1           0        2.930286   -0.372635    0.705489
     16          1           0        2.678181   -0.009705   -1.014831
 ---------------------------------------------------------------------

 SCF Done:  E(RPBE1PBE) =  -560.060258799     A.U. after   12 cycles

 The electronic state is 1-A.
 Alpha  occ. eigenvalues --  -66.24850 -19.20491 -19.19820 -10.26380 -10.21693
 Alpha  occ. eigenvalues --  -10.20690  -5.32630  -3.66157  -3.66041  -3.65895
 Alpha  occ. eigenvalues --   -1.04784  -1.02781  -0.78119  -0.70428  -0.63982
 Alpha  occ. eigenvalues --   -0.57276  -0.51287  -0.46774  -0.46564  -0.45983
 Alpha  occ. eigenvalues --   -0.43508  -0.40804  -0.39609  -0.37169  -0.36937
 Alpha  occ. eigenvalues --   -0.35849  -0.31816  -0.30342  -0.29528
 Alpha virt. eigenvalues --    0.02271   0.05683   0.06126   0.08089   0.09002
 Alpha virt. eigenvalues --    0.10243   0.10959   0.11549   0.12353   0.13517
 Alpha virt. eigenvalues --    0.14273   0.15282   0.16232   0.16726   0.19377

 Mulliken atomic charges:
              1
     1  H    0.130256
     2  C   -0.394400
     3  C   -0.309329
     4  H    0.104108
     5  H    0.142802
     6  H    0.120362
     7  Si   0.529455
     8  H    0.117154
     9  O   -0.504876
    10  O   -0.341440
    11  H   -0.067794
    12  H    0.320622
    13  C   -0.211018
    14  H    0.128569
    15  H    0.117515
    16  H    0.118012
 Sum of Mulliken atomic charges =   0.00000

 Dipole moment (field-independent basis, Debye):
    X=             -0.2778    Y=             -0.4588    Z=             -0.9944  Tot=              1.1298
 Quadrupole moment (field-independent basis, Debye-Ang):
   XX=            -41.2910   YY=            -49.0423   ZZ=            -42.8635
   XY=             -1.6142   XZ=             -0.1911   YZ=             -1.7517

 Normal termination of Gaussian 09 at Fri Aug 10 03:17:25 2018.
