 Gaussian 09, Revision C.01,
 Gaussian 09:  EM64L-G09RevC.01 23-Sep-2011

 --------------------------------------
 #SP PBE1PBE/Def2TZVP geom=connectivity
 --------------------------------------

 99/5=1,9=1/99;
 --------------
 Structure: 179
 --------------
 Charge =  0 Multiplicity = 1

                         Standard orientation:
 ---------------------------------------------------------------------
 Center     Atomic      Atomic             Coordinates (Angstroms)
 Number     Number       Type             X           Y           Z
 ---------------------------------------------------------------------
      1          1           0       -3.230976   -1.194288   -0.498670
      2          6           0       -2.235622   -0.770275   -0.654017
      3          6           0       -1.622230   -0.281066    0.657284
      4          1           0       -2.347104    0.043843   -1.376580
      5          1           0       -1.615930   -1.541675   -1.117842
      6          1           0       -2.258357    0.485115    1.114133
      7         14           0        0.090743    0.426096    0.490347
      8          1           0       -1.569092   -1.102725    1.379449
      9          8           0        0.153976    1.734664   -0.528284
     10          8           0        1.033105   -0.808796   -0.043564
     11          1           0        0.629581    0.959363    1.767861
     12          1           0       -0.200594    1.624408   -1.412447
     13          6           0        2.426391   -0.709420   -0.223933
     14          1           0        2.806717   -1.690446   -0.513990
     15          1           0        2.929274   -0.401463    0.700746
     16          1           0        2.678200    0.010144   -1.008732
 ---------------------------------------------------------------------

 SCF Done:  E(RPBE1PBE) =  -560.061250834     A.U. after   12 cycles

 The electronic state is 1-A.
 Alpha  occ. eigenvalues --  -66.25514 -19.20191 -19.20069 -10.26469 -10.21745
 Alpha  occ. eigenvalues --  -10.20912  -5.33147  -3.66672  -3.66564  -3.66419
 Alpha  occ. eigenvalues --   -1.04393  -1.02096  -0.78235  -0.70546  -0.64077
 Alpha  occ. eigenvalues --   -0.56539  -0.51139  -0.46866  -0.46639  -0.45984
 Alpha  occ. eigenvalues --   -0.43583  -0.40983  -0.38949  -0.37241  -0.36533
 Alpha  occ. eigenvalues --   -0.35581  -0.31895  -0.30471  -0.29728
 Alpha virt. eigenvalues --    0.02291   0.05510   0.06018   0.07996   0.08963
 Alpha virt. eigenvalues --    0.10155   0.10825   0.11376   0.12293   0.13486
 Alpha virt. eigenvalues --    0.13997   0.15224   0.16046   0.16503   0.19272

 Mulliken atomic charges:
              1
     1  H    0.130220
     2  C   -0.393284
     3  C   -0.304813
     4  H    0.105753
     5  H    0.142427
     6  H    0.121531
     7  Si   0.540893
     8  H    0.118073
     9  O   -0.533124
    10  O   -0.338691
    11  H   -0.062523
    12  H    0.318302
    13  C   -0.211353
    14  H    0.128813
    15  H    0.117584
    16  H    0.120194
 Sum of Mulliken atomic charges =   0.00000

 Dipole moment (field-independent basis, Debye):
    X=             -0.2862    Y=             -0.6131    Z=             -0.8684  Tot=              1.1009
 Quadrupole moment (field-independent basis, Debye-Ang):
   XX=            -41.1461   YY=            -49.3520   ZZ=            -42.8553
   XY=             -1.6620   XZ=             -0.2042   YZ=             -1.7576

 Normal termination of Gaussian 09 at Fri Aug 10 06:04:52 2018.
