 Gaussian 09, Revision C.01,
 Gaussian 09:  EM64L-G09RevC.01 23-Sep-2011

 --------------------------------------
 #SP PBE1PBE/Def2TZVP geom=connectivity
 --------------------------------------

 99/5=1,9=1/99;
 --------------
 Structure: 210
 --------------
 Charge =  0 Multiplicity = 1

                         Standard orientation:
 ---------------------------------------------------------------------
 Center     Atomic      Atomic             Coordinates (Angstroms)
 Number     Number       Type             X           Y           Z
 ---------------------------------------------------------------------
      1          1           0       -3.232130   -1.182361   -0.532656
      2          6           0       -2.236322   -0.754470   -0.673806
      3          6           0       -1.623076   -0.308441    0.652871
      4          1           0       -2.346738    0.082667   -1.369741
      5          1           0       -1.617122   -1.511056   -1.162046
      6          1           0       -2.258711    0.443170    1.133964
      7         14           0        0.090615    0.402164    0.509585
      8          1           0       -1.571009   -1.153046    1.348140
      9          8           0        0.157293    1.793030   -0.502882
     10          8           0        1.032095   -0.815706   -0.063542
     11          1           0        0.629362    0.893389    1.803885
     12          1           0       -0.196067    1.712111   -1.390423
     13          6           0        2.425551   -0.711842   -0.240021
     14          1           0        2.805116   -1.683337   -0.561457
     15          1           0        2.928298   -0.434379    0.694335
     16          1           0        2.678367    0.032465   -1.001060
 ---------------------------------------------------------------------

 SCF Done:  E(RPBE1PBE) =  -560.058634976     A.U. after   12 cycles

 The electronic state is 1-A.
 Alpha  occ. eigenvalues --  -66.26239 -19.20367 -19.19786 -10.26580 -10.21805
 Alpha  occ. eigenvalues --  -10.21166  -5.33739  -3.67265  -3.67161  -3.67013
 Alpha  occ. eigenvalues --   -1.04387  -1.00937  -0.78370  -0.70692  -0.64195
 Alpha  occ. eigenvalues --   -0.55848  -0.50849  -0.46993  -0.46741  -0.46002
 Alpha  occ. eigenvalues --   -0.43677  -0.41201  -0.38339  -0.37215  -0.36417
 Alpha  occ. eigenvalues --   -0.34978  -0.31912  -0.30599  -0.29936
 Alpha virt. eigenvalues --    0.02276   0.05278   0.05879   0.07883   0.08911
 Alpha virt. eigenvalues --    0.10030   0.10631   0.11150   0.12218   0.13412
 Alpha virt. eigenvalues --    0.13701   0.15133   0.15813   0.16275   0.19146

 Mulliken atomic charges:
              1
     1  H    0.130182
     2  C   -0.392046
     3  C   -0.299980
     4  H    0.107756
     5  H    0.141964
     6  H    0.122870
     7  Si   0.551763
     8  H    0.119108
     9  O   -0.562704
    10  O   -0.335802
    11  H   -0.056520
    12  H    0.315759
    13  C   -0.211925
    14  H    0.129140
    15  H    0.117703
    16  H    0.122733
 Sum of Mulliken atomic charges =   0.00000

 Dipole moment (field-independent basis, Debye):
    X=             -0.2907    Y=             -0.8076    Z=             -0.7293  Tot=              1.1264
 Quadrupole moment (field-independent basis, Debye-Ang):
   XX=            -40.9732   YY=            -49.7387   ZZ=            -42.8341
   XY=             -1.7149   XZ=             -0.2234   YZ=             -1.7802

 Normal termination of Gaussian 09 at Fri Aug 10 02:58:40 2018.
