 Gaussian 09, Revision C.01,
 Gaussian 09:  EM64L-G09RevC.01 23-Sep-2011

 --------------------------------------
 #SP PBE1PBE/Def2TZVP geom=connectivity
 --------------------------------------

 99/5=1,9=1/99;
 --------------
 Structure: 207
 --------------
 Charge =  0 Multiplicity = 1

                         Standard orientation:
 ---------------------------------------------------------------------
 Center     Atomic      Atomic             Coordinates (Angstroms)
 Number     Number       Type             X           Y           Z
 ---------------------------------------------------------------------
      1          1           0       -3.232165   -1.183070   -0.529829
      2          6           0       -2.236364   -0.755554   -0.672164
      3          6           0       -1.623100   -0.305901    0.653281
      4          1           0       -2.346803    0.079680   -1.370378
      5          1           0       -1.617164   -1.513462   -1.158350
      6          1           0       -2.258737    0.447011    1.132333
      7         14           0        0.090579    0.404332    0.508027
      8          1           0       -1.571011   -1.148607    1.350849
      9          8           0        0.157573    1.787443   -0.505404
     10          8           0        1.032064   -0.815086   -0.061793
     11          1           0        0.629343    0.899091    1.800972
     12          1           0       -0.196642    1.703870   -1.391600
     13          6           0        2.425516   -0.711686   -0.238579
     14          1           0        2.805087   -1.684050   -0.557371
     15          1           0        2.928275   -0.431670    0.695007
     16          1           0        2.678309    0.030546   -1.001651
 ---------------------------------------------------------------------

 SCF Done:  E(RPBE1PBE) =  -560.059014429     A.U. after   12 cycles

 The electronic state is 1-A.
 Alpha  occ. eigenvalues --  -66.26176 -19.20338 -19.19818 -10.26569 -10.21801
 Alpha  occ. eigenvalues --  -10.21146  -5.33687  -3.67213  -3.67108  -3.66961
 Alpha  occ. eigenvalues --   -1.04378  -1.01064  -0.78359  -0.70677  -0.64186
 Alpha  occ. eigenvalues --   -0.55909  -0.50883  -0.46981  -0.46730  -0.46002
 Alpha  occ. eigenvalues --   -0.43669  -0.41184  -0.38383  -0.37230  -0.36422
 Alpha  occ. eigenvalues --   -0.35035  -0.31914  -0.30588  -0.29920
 Alpha virt. eigenvalues --    0.02285   0.05301   0.05892   0.07893   0.08919
 Alpha virt. eigenvalues --    0.10044   0.10649   0.11171   0.12225   0.13422
 Alpha virt. eigenvalues --    0.13724   0.15144   0.15837   0.16294   0.19158

 Mulliken atomic charges:
              1
     1  H    0.130192
     2  C   -0.392142
     3  C   -0.300443
     4  H    0.107572
     5  H    0.142023
     6  H    0.122757
     7  Si   0.550838
     8  H    0.119036
     9  O   -0.559992
    10  O   -0.336058
    11  H   -0.057050
    12  H    0.315830
    13  C   -0.211859
    14  H    0.129100
    15  H    0.117674
    16  H    0.122522
 Sum of Mulliken atomic charges =   0.00000

 Dipole moment (field-independent basis, Debye):
    X=             -0.2929    Y=             -0.7892    Z=             -0.7393  Tot=              1.1204
 Quadrupole moment (field-independent basis, Debye-Ang):
   XX=            -40.9879   YY=            -49.7005   ZZ=            -42.8400
   XY=             -1.7125   XZ=             -0.2200   YZ=             -1.7736

 Normal termination of Gaussian 09 at Fri Aug 10 02:39:28 2018.
