 Gaussian 09, Revision C.01,
 Gaussian 09:  EM64L-G09RevC.01 23-Sep-2011

 --------------------------------------
 #SP PBE1PBE/Def2TZVP geom=connectivity
 --------------------------------------

 99/5=1,9=1/99;
 --------------
 Structure: 212
 --------------
 Charge =  0 Multiplicity = 1

                         Standard orientation:
 ---------------------------------------------------------------------
 Center     Atomic      Atomic             Coordinates (Angstroms)
 Number     Number       Type             X           Y           Z
 ---------------------------------------------------------------------
      1          1           0       -3.232324   -1.181344   -0.534892
      2          6           0       -2.236456   -0.753283   -0.675103
      3          6           0       -1.623218   -0.310096    0.652531
      4          1           0       -2.346735    0.085316   -1.369296
      5          1           0       -1.617327   -1.508928   -1.164889
      6          1           0       -2.258784    0.440589    1.135159
      7         14           0        0.090567    0.400592    0.510808
      8          1           0       -1.571290   -1.156156    1.346040
      9          8           0        0.157929    1.796746   -0.501326
     10          8           0        1.031923   -0.816198   -0.064810
     11          1           0        0.629313    0.889051    1.806155
     12          1           0       -0.195327    1.717878   -1.388065
     13          6           0        2.425401   -0.712139   -0.241006
     14          1           0        2.804861   -1.683009   -0.564448
     15          1           0        2.928137   -0.436687    0.693950
     16          1           0        2.678347    0.033721   -1.000480
 ---------------------------------------------------------------------

 SCF Done:  E(RPBE1PBE) =  -560.058345932     A.U. after   12 cycles

 The electronic state is 1-A.
 Alpha  occ. eigenvalues --  -66.26286 -19.20386 -19.19750 -10.26587 -10.21810
 Alpha  occ. eigenvalues --  -10.21184  -5.33778  -3.67304  -3.67201  -3.67052
 Alpha  occ. eigenvalues --   -1.04394  -1.00878  -0.78380  -0.70701  -0.64205
 Alpha  occ. eigenvalues --   -0.55819  -0.50830  -0.47002  -0.46747  -0.46005
 Alpha  occ. eigenvalues --   -0.43684  -0.41217  -0.38314  -0.37205  -0.36416
 Alpha  occ. eigenvalues --   -0.34940  -0.31910  -0.30607  -0.29949
 Alpha virt. eigenvalues --    0.02280   0.05263   0.05870   0.07875   0.08911
 Alpha virt. eigenvalues --    0.10021   0.10615   0.11136   0.12213   0.13404
 Alpha virt. eigenvalues --    0.13685   0.15127   0.15800   0.16261   0.19138

 Mulliken atomic charges:
              1
     1  H    0.130183
     2  C   -0.391954
     3  C   -0.299715
     4  H    0.107908
     5  H    0.141939
     6  H    0.122964
     7  Si   0.552361
     8  H    0.119192
     9  O   -0.564321
    10  O   -0.335626
    11  H   -0.056147
    12  H    0.315407
    13  C   -0.211963
    14  H    0.129161
    15  H    0.117707
    16  H    0.122906
 Sum of Mulliken atomic charges =   0.00000

 Dipole moment (field-independent basis, Debye):
    X=             -0.2921    Y=             -0.8210    Z=             -0.7193  Tot=              1.1299
 Quadrupole moment (field-independent basis, Debye-Ang):
   XX=            -40.9607   YY=            -49.7633   ZZ=            -42.8354
   XY=             -1.7197   XZ=             -0.2252   YZ=             -1.7801

 Normal termination of Gaussian 09 at Fri Aug 10 03:11:21 2018.
