 Gaussian 09, Revision C.01,
 Gaussian 09:  EM64L-G09RevC.01 23-Sep-2011

 --------------------------------------
 #SP PBE1PBE/Def2TZVP geom=connectivity
 --------------------------------------

 99/5=1,9=1/99;
 --------------
 Structure: 224
 --------------
 Charge =  0 Multiplicity = 1

                         Standard orientation:
 ---------------------------------------------------------------------
 Center     Atomic      Atomic             Coordinates (Angstroms)
 Number     Number       Type             X           Y           Z
 ---------------------------------------------------------------------
      1          1           0       -3.232751   -1.176693   -0.547439
      2          6           0       -2.236709   -0.747326   -0.682316
      3          6           0       -1.623531   -0.320411    0.650666
      4          1           0       -2.346578    0.099628   -1.366357
      5          1           0       -1.617767   -1.497225   -1.181087
      6          1           0       -2.258910    0.424622    1.142217
      7         14           0        0.090529    0.391328    0.517803
      8          1           0       -1.572016   -1.174796    1.333924
      9          8           0        0.159174    1.819156   -0.491469
     10          8           0        1.031548   -0.818762   -0.072308
     11          1           0        0.629235    0.863928    1.819036
     12          1           0       -0.193965    1.751120   -1.379152
     13          6           0        2.425092   -0.713080   -0.247013
     14          1           0        2.804261   -1.680112   -0.582087
     15          1           0        2.927772   -0.449109    0.691279
     16          1           0        2.678425    0.041801   -0.997391
 ---------------------------------------------------------------------

 SCF Done:  E(RPBE1PBE) =  -560.056406091     A.U. after   13 cycles

 The electronic state is 1-A.
 Alpha  occ. eigenvalues --  -66.26549 -19.20502 -19.19584 -10.26631 -10.21835
 Alpha  occ. eigenvalues --  -10.21282  -5.34000  -3.67527  -3.67424  -3.67272
 Alpha  occ. eigenvalues --   -1.04445  -1.00407  -0.78433  -0.70759  -0.64253
 Alpha  occ. eigenvalues --   -0.55610  -0.50675  -0.47054  -0.46789  -0.46017
 Alpha  occ. eigenvalues --   -0.43722  -0.41301  -0.38195  -0.37108  -0.36401
 Alpha  occ. eigenvalues --   -0.34718  -0.31881  -0.30646  -0.30017
 Alpha virt. eigenvalues --    0.02255   0.05165   0.05811   0.07831   0.08889
 Alpha virt. eigenvalues --    0.09960   0.10525   0.11049   0.12181   0.13346
 Alpha virt. eigenvalues --    0.13603   0.15081   0.15709   0.16185   0.19090

 Mulliken atomic charges:
              1
     1  H    0.130178
     2  C   -0.391485
     3  C   -0.298045
     4  H    0.108680
     5  H    0.141772
     6  H    0.123485
     7  Si   0.555676
     8  H    0.119593
     9  O   -0.574601
    10  O   -0.334583
    11  H   -0.053907
    12  H    0.314513
    13  C   -0.212219
    14  H    0.129294
    15  H    0.117761
    16  H    0.123887
 Sum of Mulliken atomic charges =   0.00000

 Dipole moment (field-independent basis, Debye):
    X=             -0.2943    Y=             -0.9004    Z=             -0.6682  Tot=              1.1592
 Quadrupole moment (field-independent basis, Debye-Ang):
   XX=            -40.8925   YY=            -49.9208   ZZ=            -42.8259
   XY=             -1.7415   XZ=             -0.2318   YZ=             -1.7915

 Normal termination of Gaussian 09 at Fri Aug 10 04:28:39 2018.
