 Gaussian 09, Revision C.01,
 Gaussian 09:  EM64L-G09RevC.01 23-Sep-2011

 --------------------------------------
 #SP PBE1PBE/Def2TZVP geom=connectivity
 --------------------------------------

 99/5=1,9=1/99;
 -------------
 Structure: 24
 -------------
 Charge =  0 Multiplicity = 1

                         Standard orientation:
 ---------------------------------------------------------------------
 Center     Atomic      Atomic             Coordinates (Angstroms)
 Number     Number       Type             X           Y           Z
 ---------------------------------------------------------------------
      1          1           0       -3.225133   -1.244878   -0.302983
      2          6           0       -2.231902   -0.851866   -0.534680
      3          6           0       -1.618048   -0.132576    0.665690
      4          1           0       -2.348266   -0.181315   -1.391497
      5          1           0       -1.609830   -1.691681   -0.853970
      6          1           0       -2.256547    0.700788    0.979101
      7         14           0        0.091563    0.539650    0.369776
      8          1           0       -1.559997   -0.810841    1.523627
      9          8           0        0.136268    1.437671   -0.637256
     10          8           0        1.038144   -0.767462    0.063978
     11          1           0        0.630610    1.295920    1.529192
     12          1           0       -0.218570    1.169652   -1.485533
     13          6           0        2.430638   -0.696764   -0.135055
     14          1           0        2.814581   -1.712477   -0.245090
     15          1           0        2.934005   -0.225689    0.717864
     16          1           0        2.677844   -0.129014   -1.037075
 ---------------------------------------------------------------------

 SCF Done:  E(RPBE1PBE) =  -559.968808624     A.U. after   12 cycles

 The electronic state is 1-A.
 Alpha  occ. eigenvalues --  -66.20696 -19.21249 -19.18642 -10.25995 -10.21505
 Alpha  occ. eigenvalues --  -10.19602  -5.30006  -3.63795  -3.63216  -3.63052
 Alpha  occ. eigenvalues --   -1.11212  -1.02562  -0.77621  -0.69907  -0.63912
 Alpha  occ. eigenvalues --   -0.61428  -0.51506  -0.47431  -0.46651  -0.45942
 Alpha  occ. eigenvalues --   -0.43592  -0.42809  -0.41361  -0.39469  -0.36286
 Alpha  occ. eigenvalues --   -0.35638  -0.31083  -0.29643  -0.28404
 Alpha virt. eigenvalues --    0.01796   0.06185   0.06642   0.08488   0.09135
 Alpha virt. eigenvalues --    0.10541   0.11411   0.12081   0.12563   0.13504
 Alpha virt. eigenvalues --    0.15277   0.15656   0.17071   0.17691   0.19786

 Mulliken atomic charges:
              1
     1  H    0.130807
     2  C   -0.401051
     3  C   -0.338535
     4  H    0.096816
     5  H    0.145157
     6  H    0.114801
     7  Si   0.452589
     8  H    0.113272
     9  O   -0.329890
    10  O   -0.362281
    11  H   -0.097889
    12  H    0.334832
    13  C   -0.211529
    14  H    0.127663
    15  H    0.117673
    16  H    0.107566
 Sum of Mulliken atomic charges =   0.00000

 Dipole moment (field-independent basis, Debye):
    X=             -0.2542    Y=              0.0964    Z=             -1.6992  Tot=              1.7208
 Quadrupole moment (field-independent basis, Debye-Ang):
   XX=            -41.9217   YY=            -47.8495   ZZ=            -42.8260
   XY=             -1.4355   XZ=             -0.1417   YZ=             -1.8385

 Normal termination of Gaussian 09 at Fri Aug 10 00:24:43 2018.
