 Gaussian 09, Revision C.01,
 Gaussian 09:  EM64L-G09RevC.01 23-Sep-2011

 --------------------------------------
 #SP PBE1PBE/Def2TZVP geom=connectivity
 --------------------------------------

 99/5=1,9=1/99;
 --------------
 Structure: 262
 --------------
 Charge =  0 Multiplicity = 1

                         Standard orientation:
 ---------------------------------------------------------------------
 Center     Atomic      Atomic             Coordinates (Angstroms)
 Number     Number       Type             X           Y           Z
 ---------------------------------------------------------------------
      1          1           0       -3.234639   -1.161393   -0.584794
      2          6           0       -2.237902   -0.728891   -0.703564
      3          6           0       -1.624884   -0.351246    0.644278
      4          1           0       -2.346158    0.142353   -1.356656
      5          1           0       -1.619750   -1.461206   -1.228743
      6          1           0       -2.259477    0.376490    1.162057
      7         14           0        0.090274    0.362324    0.538087
      8          1           0       -1.574993   -1.229803    1.296288
      9          8           0        0.164992    1.889593   -0.460566
     10          8           0        1.029895   -0.827056   -0.094808
     11          1           0        0.628905    0.786878    1.855809
     12          1           0       -0.188642    1.853750   -1.350203
     13          6           0        2.423690   -0.717169   -0.264852
     14          1           0        2.801663   -1.672032   -0.634402
     15          1           0        2.926205   -0.487960    0.682619
     16          1           0        2.678542    0.063926   -0.987369
 ---------------------------------------------------------------------

 SCF Done:  E(RPBE1PBE) =  -560.048034392     A.U. after   13 cycles

 The electronic state is 1-A.
 Alpha  occ. eigenvalues --  -66.27322 -19.20865 -19.19039 -10.26772 -10.21919
 Alpha  occ. eigenvalues --  -10.21590  -5.34672  -3.68204  -3.68097  -3.67936
 Alpha  occ. eigenvalues --   -1.04666  -0.98960  -0.78607  -0.70942  -0.64413
 Alpha  occ. eigenvalues --   -0.55152  -0.50060  -0.47219  -0.46924  -0.46066
 Alpha  occ. eigenvalues --   -0.43847  -0.41550  -0.38160  -0.36793  -0.36140
 Alpha  occ. eigenvalues --   -0.34226  -0.31669  -0.30726  -0.30140
 Alpha virt. eigenvalues --    0.02093   0.04831   0.05612   0.07690   0.08810
 Alpha virt. eigenvalues --    0.09675   0.10226   0.10803   0.12075   0.13071
 Alpha virt. eigenvalues --    0.13459   0.14884   0.15443   0.15984   0.18937

 Mulliken atomic charges:
              1
     1  H    0.130203
     2  C   -0.389989
     3  C   -0.293434
     4  H    0.111129
     5  H    0.141291
     6  H    0.125158
     7  Si   0.563445
     8  H    0.120901
     9  O   -0.603515
    10  O   -0.331449
    11  H   -0.047182
    12  H    0.311861
    13  C   -0.213071
    14  H    0.129737
    15  H    0.117967
    16  H    0.126948
 Sum of Mulliken atomic charges =   0.00000

 Dipole moment (field-independent basis, Debye):
    X=             -0.3057    Y=             -1.1642    Z=             -0.5183  Tot=              1.3105
 Quadrupole moment (field-independent basis, Debye-Ang):
   XX=            -40.6762   YY=            -50.4437   ZZ=            -42.7945
   XY=             -1.8201   XZ=             -0.2541   YZ=             -1.8380

 Normal termination of Gaussian 09 at Fri Aug 10 01:10:31 2018.
