 Gaussian 09, Revision C.01,
 Gaussian 09:  EM64L-G09RevC.01 23-Sep-2011

 --------------------------------------
 #SP PBE1PBE/Def2TZVP geom=connectivity
 --------------------------------------

 99/5=1,9=1/99;
 --------------
 Structure: 240
 --------------
 Charge =  0 Multiplicity = 1

                         Standard orientation:
 ---------------------------------------------------------------------
 Center     Atomic      Atomic             Coordinates (Angstroms)
 Number     Number       Type             X           Y           Z
 ---------------------------------------------------------------------
      1          1           0       -3.233620   -1.170159   -0.563472
      2          6           0       -2.237270   -0.739408   -0.691491
      3          6           0       -1.624150   -0.333440    0.648046
      4          1           0       -2.346429    0.118038   -1.362450
      5          1           0       -1.618684   -1.481943   -1.201591
      6          1           0       -2.259176    0.404351    1.150847
      7         14           0        0.090396    0.379157    0.526553
      8          1           0       -1.573349   -1.198267    1.318093
      9          8           0        0.161848    1.848742   -0.478366
     10          8           0        1.030790   -0.822317   -0.081877
     11          1           0        0.629082    0.831340    1.835029
     12          1           0       -0.191187    1.794465   -1.368063
     13          6           0        2.424443   -0.714854   -0.254605
     14          1           0        2.803078   -1.676861   -0.604424
     15          1           0        2.927060   -0.465670    0.687756
     16          1           0        2.678444    0.051316   -0.993223
 ---------------------------------------------------------------------

 SCF Done:  E(RPBE1PBE) =  -560.053279635     A.U. after   13 cycles

 The electronic state is 1-A.
 Alpha  occ. eigenvalues --  -66.26881 -19.20653 -19.19368 -10.26689 -10.21869
 Alpha  occ. eigenvalues --  -10.21411  -5.34285  -3.67814  -3.67710  -3.67554
 Alpha  occ. eigenvalues --   -1.04528  -0.99771  -0.78505  -0.70834  -0.64318
 Alpha  occ. eigenvalues --   -0.55375  -0.50432  -0.47122  -0.46845  -0.46036
 Alpha  occ. eigenvalues --   -0.43774  -0.41406  -0.38135  -0.36939  -0.36353
 Alpha  occ. eigenvalues --   -0.34468  -0.31810  -0.30689  -0.30088
 Alpha virt. eigenvalues --    0.02197   0.05029   0.05731   0.07773   0.08856
 Alpha virt. eigenvalues --    0.09861   0.10397   0.10941   0.12138   0.13242
 Alpha virt. eigenvalues --    0.13527   0.15009   0.15585   0.16094   0.19024

 Mulliken atomic charges:
              1
     1  H    0.130182
     2  C   -0.390871
     3  C   -0.295979
     4  H    0.109706
     5  H    0.141563
     6  H    0.124181
     7  Si   0.559351
     8  H    0.120143
     9  O   -0.587428
    10  O   -0.333258
    11  H   -0.051048
    12  H    0.313538
    13  C   -0.212551
    14  H    0.129473
    15  H    0.117841
    16  H    0.125158
 Sum of Mulliken atomic charges =   0.00000

 Dipole moment (field-independent basis, Debye):
    X=             -0.2988    Y=             -1.0083    Z=             -0.6050  Tot=              1.2133
 Quadrupole moment (field-independent basis, Debye-Ang):
   XX=            -40.8046   YY=            -50.1356   ZZ=            -42.8104
   XY=             -1.7734   XZ=             -0.2422   YZ=             -1.8120

 Normal termination of Gaussian 09 at Thu Aug  9 22:39:07 2018.
