 Gaussian 09, Revision C.01,
 Gaussian 09:  EM64L-G09RevC.01 23-Sep-2011

 --------------------------------------
 #SP PBE1PBE/Def2TZVP geom=connectivity
 --------------------------------------

 99/5=1,9=1/99;
 --------------
 Structure: 209
 --------------
 Charge =  0 Multiplicity = 1

                         Standard orientation:
 ---------------------------------------------------------------------
 Center     Atomic      Atomic             Coordinates (Angstroms)
 Number     Number       Type             X           Y           Z
 ---------------------------------------------------------------------
      1          1           0       -3.232098   -1.182776   -0.531406
      2          6           0       -2.236304   -0.755025   -0.673082
      3          6           0       -1.623053   -0.307391    0.653052
      4          1           0       -2.346755    0.081275   -1.370016
      5          1           0       -1.617089   -1.512176   -1.160425
      6          1           0       -2.258705    0.444776    1.133254
      7         14           0        0.090614    0.403093    0.508892
      8          1           0       -1.570952   -1.151163    1.349330
      9          8           0        0.157209    1.790705   -0.503887
     10          8           0        1.032122   -0.815434   -0.062790
     11          1           0        0.629364    0.895882    1.802596
     12          1           0       -0.196161    1.708714   -1.391326
     13          6           0        2.425573   -0.711739   -0.239412
     14          1           0        2.805163   -1.683607   -0.559691
     15          1           0        2.928324   -0.433144    0.694604
     16          1           0        2.678357    0.031664   -1.001345
 ---------------------------------------------------------------------

 SCF Done:  E(RPBE1PBE) =  -560.058800578     A.U. after   12 cycles

 The electronic state is 1-A.
 Alpha  occ. eigenvalues --  -66.26212 -19.20355 -19.19802 -10.26576 -10.21803
 Alpha  occ. eigenvalues --  -10.21156  -5.33717  -3.67242  -3.67138  -3.66990
 Alpha  occ. eigenvalues --   -1.04383  -1.00985  -0.78364  -0.70686  -0.64190
 Alpha  occ. eigenvalues --   -0.55872  -0.50863  -0.46988  -0.46736  -0.46000
 Alpha  occ. eigenvalues --   -0.43673  -0.41193  -0.38356  -0.37221  -0.36418
 Alpha  occ. eigenvalues --   -0.35002  -0.31914  -0.30594  -0.29928
 Alpha virt. eigenvalues --    0.02278   0.05288   0.05884   0.07888   0.08913
 Alpha virt. eigenvalues --    0.10036   0.10639   0.11159   0.12221   0.13416
 Alpha virt. eigenvalues --    0.13711   0.15137   0.15822   0.16283   0.19151

 Mulliken atomic charges:
              1
     1  H    0.130183
     2  C   -0.392094
     3  C   -0.300155
     4  H    0.107678
     5  H    0.141981
     6  H    0.122815
     7  Si   0.551401
     8  H    0.119067
     9  O   -0.561632
    10  O   -0.335911
    11  H   -0.056745
    12  H    0.315857
    13  C   -0.211899
    14  H    0.129126
    15  H    0.117695
    16  H    0.122633
 Sum of Mulliken atomic charges =   0.00000

 Dipole moment (field-independent basis, Debye):
    X=             -0.2906    Y=             -0.7996    Z=             -0.7345  Tot=              1.1239
 Quadrupole moment (field-independent basis, Debye-Ang):
   XX=            -40.9803   YY=            -49.7226   ZZ=            -42.8349
   XY=             -1.7127   XZ=             -0.2227   YZ=             -1.7791

 Normal termination of Gaussian 09 at Fri Aug 10 02:52:17 2018.
