 Gaussian 09, Revision C.01,
 Gaussian 09:  EM64L-G09RevC.01 23-Sep-2011

 --------------------------------------
 #SP PBE1PBE/Def2TZVP geom=connectivity
 --------------------------------------

 99/5=1,9=1/99;
 --------------
 Structure: 292
 --------------
 Charge =  0 Multiplicity = 1

                         Standard orientation:
 ---------------------------------------------------------------------
 Center     Atomic      Atomic             Coordinates (Angstroms)
 Number     Number       Type             X           Y           Z
 ---------------------------------------------------------------------
      1          1           0       -3.235975   -1.149784   -0.611764
      2          6           0       -2.238715   -0.715389   -0.718634
      3          6           0       -1.625865   -0.374261    0.638986
      4          1           0       -2.345735    0.172969   -1.348459
      5          1           0       -1.621138   -1.434217   -1.262781
      6          1           0       -2.259884    0.340203    1.175607
      7         14           0        0.090118    0.339975    0.552426
      8          1           0       -1.577216   -1.269837    1.267512
      9          8           0        0.168898    1.943732   -0.436908
     10          8           0        1.028710   -0.833258   -0.111378
     11          1           0        0.628645    0.728876    1.881150
     12          1           0       -0.183479    1.932258   -1.327423
     13          6           0        2.422698   -0.720446   -0.277890
     14          1           0        2.799785   -1.665601   -0.672454
     15          1           0        2.925055   -0.516972    0.675523
     16          1           0        2.678716    0.079234   -0.979358
 ---------------------------------------------------------------------

 SCF Done:  E(RPBE1PBE) =  -560.039799667     A.U. after   14 cycles

 The electronic state is 1-A.
 Alpha  occ. eigenvalues --  -66.27871 -19.21147 -19.18590 -10.26886 -10.21985
 Alpha  occ. eigenvalues --  -10.21821  -5.35165  -3.68704  -3.68590  -3.68420
 Alpha  occ. eigenvalues --   -1.04869  -0.97916  -0.78740  -0.71088  -0.64538
 Alpha  occ. eigenvalues --   -0.54987  -0.49525  -0.47343  -0.47028  -0.46095
 Alpha  occ. eigenvalues --   -0.43938  -0.41722  -0.38264  -0.36793  -0.35658
 Alpha  occ. eigenvalues --   -0.34074  -0.31497  -0.30717  -0.30038
 Alpha virt. eigenvalues --    0.01868   0.04547   0.05442   0.07577   0.08720
 Alpha virt. eigenvalues --    0.09351   0.10048   0.10638   0.11988   0.12848
 Alpha virt. eigenvalues --    0.13387   0.14682   0.15285   0.15862   0.18823

 Mulliken atomic charges:
              1
     1  H    0.130234
     2  C   -0.388847
     3  C   -0.290321
     4  H    0.113065
     5  H    0.140915
     6  H    0.126420
     7  Si   0.567541
     8  H    0.121866
     9  O   -0.623330
    10  O   -0.329038
    11  H   -0.042168
    12  H    0.309932
    13  C   -0.213795
    14  H    0.130113
    15  H    0.118167
    16  H    0.129244
 Sum of Mulliken atomic charges =   0.00000

 Dipole moment (field-independent basis, Debye):
    X=             -0.3109    Y=             -1.3780    Z=             -0.4132  Tot=              1.4718
 Quadrupole moment (field-independent basis, Debye-Ang):
   XX=            -40.5090   YY=            -50.8675   ZZ=            -42.7629
   XY=             -1.8792   XZ=             -0.2750   YZ=             -1.8888

 Normal termination of Gaussian 09 at Fri Aug 10 04:34:42 2018.
