 Gaussian 09, Revision C.01,
 Gaussian 09:  EM64L-G09RevC.01 23-Sep-2011

 --------------------------------------
 #SP PBE1PBE/Def2TZVP geom=connectivity
 --------------------------------------

 99/5=1,9=1/99;
 --------------
 Structure: 245
 --------------
 Charge =  0 Multiplicity = 1

                         Standard orientation:
 ---------------------------------------------------------------------
 Center     Atomic      Atomic             Coordinates (Angstroms)
 Number     Number       Type             X           Y           Z
 ---------------------------------------------------------------------
      1          1           0       -3.233730   -1.168248   -0.568553
      2          6           0       -2.237322   -0.736982   -0.694369
      3          6           0       -1.624240   -0.337745    0.647207
      4          1           0       -2.346338    0.123798   -1.361067
      5          1           0       -1.618789   -1.477047   -1.208111
      6          1           0       -2.259211    0.397614    1.153627
      7         14           0        0.090397    0.375246    0.529365
      8          1           0       -1.573583   -1.205895    1.312953
      9          8           0        0.162138    1.858033   -0.474334
     10          8           0        1.030689   -0.823301   -0.084967
     11          1           0        0.629053    0.820861    1.840105
     12          1           0       -0.190775    1.808342   -1.363323
     13          6           0        2.424367   -0.715145   -0.257070
     14          1           0        2.802912   -1.675446   -0.611639
     15          1           0        2.926952   -0.470703    0.686549
     16          1           0        2.678504    0.054655   -0.991857
 ---------------------------------------------------------------------

 SCF Done:  E(RPBE1PBE) =  -560.052152724     A.U. after   13 cycles

 The electronic state is 1-A.
 Alpha  occ. eigenvalues --  -66.26986 -19.20702 -19.19285 -10.26709 -10.21880
 Alpha  occ. eigenvalues --  -10.21452  -5.34377  -3.67906  -3.67802  -3.67645
 Alpha  occ. eigenvalues --   -1.04559  -0.99598  -0.78528  -0.70859  -0.64339
 Alpha  occ. eigenvalues --   -0.55322  -0.50357  -0.47145  -0.46863  -0.46043
 Alpha  occ. eigenvalues --   -0.43790  -0.41442  -0.38133  -0.36891  -0.36322
 Alpha  occ. eigenvalues --   -0.34403  -0.31782  -0.30699  -0.30107
 Alpha virt. eigenvalues --    0.02184   0.04985   0.05704   0.07753   0.08849
 Alpha virt. eigenvalues --    0.09825   0.10356   0.10908   0.12125   0.13203
 Alpha virt. eigenvalues --    0.13510   0.14982   0.15556   0.16068   0.19005

 Mulliken atomic charges:
              1
     1  H    0.130182
     2  C   -0.390667
     3  C   -0.295373
     4  H    0.110041
     5  H    0.141495
     6  H    0.124399
     7  Si   0.560466
     8  H    0.120308
     9  O   -0.591199
    10  O   -0.332833
    11  H   -0.050128
    12  H    0.313012
    13  C   -0.212680
    14  H    0.129534
    15  H    0.117866
    16  H    0.125577
 Sum of Mulliken atomic charges =   0.00000

 Dipole moment (field-independent basis, Debye):
    X=             -0.2995    Y=             -1.0433    Z=             -0.5834  Tot=              1.2323
 Quadrupole moment (field-independent basis, Debye-Ang):
   XX=            -40.7740   YY=            -50.2036   ZZ=            -42.8080
   XY=             -1.7824   XZ=             -0.2448   YZ=             -1.8161

 Normal termination of Gaussian 09 at Thu Aug  9 23:13:43 2018.
