 Gaussian 09, Revision C.01,
 Gaussian 09:  EM64L-G09RevC.01 23-Sep-2011

 --------------------------------------
 #SP PBE1PBE/Def2TZVP geom=connectivity
 --------------------------------------

 99/5=1,9=1/99;
 --------------
 Structure: 280
 --------------
 Charge =  0 Multiplicity = 1

                         Standard orientation:
 ---------------------------------------------------------------------
 Center     Atomic      Atomic             Coordinates (Angstroms)
 Number     Number       Type             X           Y           Z
 ---------------------------------------------------------------------
      1          1           0       -3.235477   -1.154388   -0.601114
      2          6           0       -2.238418   -0.720720   -0.712716
      3          6           0       -1.625500   -0.365050    0.641135
      4          1           0       -2.345916    0.160909   -1.351847
      5          1           0       -1.620622   -1.444978   -1.249361
      6          1           0       -2.259737    0.354760    1.170303
      7         14           0        0.090166    0.348963    0.546777
      8          1           0       -1.576370   -1.253934    1.279053
      9          8           0        0.167429    1.921951   -0.446377
     10          8           0        1.029152   -0.830800   -0.104783
     11          1           0        0.628738    0.752068    1.871243
     12          1           0       -0.185084    1.900947   -1.336664
     13          6           0        2.423065   -0.719158   -0.272701
     14          1           0        2.800492   -1.668257   -0.657348
     15          1           0        2.925487   -0.505439    0.678433
     16          1           0        2.678633    0.073196   -0.982596
 ---------------------------------------------------------------------

 SCF Done:  E(RPBE1PBE) =  -560.043261282     A.U. after   13 cycles

 The electronic state is 1-A.
 Alpha  occ. eigenvalues --  -66.27654 -19.21033 -19.18771 -10.26840 -10.21958
 Alpha  occ. eigenvalues --  -10.21729  -5.34969  -3.68505  -3.68395  -3.68228
 Alpha  occ. eigenvalues --   -1.04786  -0.98330  -0.78686  -0.71029  -0.64487
 Alpha  occ. eigenvalues --   -0.55038  -0.49743  -0.47294  -0.46987  -0.46085
 Alpha  occ. eigenvalues --   -0.43902  -0.41655  -0.38217  -0.36778  -0.35860
 Alpha  occ. eigenvalues --   -0.34115  -0.31555  -0.30728  -0.30108
 Alpha virt. eigenvalues --    0.01973   0.04664   0.05512   0.07623   0.08762
 Alpha virt. eigenvalues --    0.09488   0.10113   0.10703   0.12024   0.12935
 Alpha virt. eigenvalues --    0.13416   0.14767   0.15343   0.15908   0.18868

 Mulliken atomic charges:
              1
     1  H    0.130217
     2  C   -0.389309
     3  C   -0.291523
     4  H    0.112296
     5  H    0.141059
     6  H    0.125911
     7  Si   0.566105
     8  H    0.121480
     9  O   -0.615593
    10  O   -0.330017
    11  H   -0.044170
    12  H    0.310681
    13  C   -0.213496
    14  H    0.129959
    15  H    0.118084
    16  H    0.128317
 Sum of Mulliken atomic charges =   0.00000

 Dipole moment (field-independent basis, Debye):
    X=             -0.3085    Y=             -1.2906    Z=             -0.4548  Tot=              1.4027
 Quadrupole moment (field-independent basis, Debye-Ang):
   XX=            -40.5770   YY=            -50.6937   ZZ=            -42.7754
   XY=             -1.8547   XZ=             -0.2676   YZ=             -1.8681

 Normal termination of Gaussian 09 at Fri Aug 10 03:11:07 2018.
