 Gaussian 09, Revision C.01,
 Gaussian 09:  EM64L-G09RevC.01 23-Sep-2011

 --------------------------------------
 #SP PBE1PBE/Def2TZVP geom=connectivity
 --------------------------------------

 99/5=1,9=1/99;
 --------------
 Structure: 284
 --------------
 Charge =  0 Multiplicity = 1

                         Standard orientation:
 ---------------------------------------------------------------------
 Center     Atomic      Atomic             Coordinates (Angstroms)
 Number     Number       Type             X           Y           Z
 ---------------------------------------------------------------------
      1          1           0       -3.235594   -1.153139   -0.604278
      2          6           0       -2.238484   -0.719231   -0.714481
      3          6           0       -1.625579   -0.367873    0.640502
      4          1           0       -2.345861    0.164409   -1.350849
      5          1           0       -1.620744   -1.441871   -1.253370
      6          1           0       -2.259759    0.350342    1.171900
      7         14           0        0.090168    0.346245    0.548449
      8          1           0       -1.576570   -1.258759    1.275632
      9          8           0        0.167743    1.928731   -0.443375
     10          8           0        1.029051   -0.831571   -0.106771
     11          1           0        0.628732    0.745138    1.874192
     12          1           0       -0.184808    1.910467   -1.334730
     13          6           0        2.422983   -0.719553   -0.274284
     14          1           0        2.800323   -1.667483   -0.661891
     15          1           0        2.925391   -0.508872    0.677535
     16          1           0        2.678664    0.074995   -0.981682
 ---------------------------------------------------------------------

 SCF Done:  E(RPBE1PBE) =  -560.042229343     A.U. after   13 cycles

 The electronic state is 1-A.
 Alpha  occ. eigenvalues --  -66.27720 -19.21068 -19.18726 -10.26854 -10.21965
 Alpha  occ. eigenvalues --  -10.21756  -5.35028  -3.68565  -3.68453  -3.68286
 Alpha  occ. eigenvalues --   -1.04811  -0.98181  -0.78702  -0.71047  -0.64502
 Alpha  occ. eigenvalues --   -0.55016  -0.49669  -0.47309  -0.47000  -0.46087
 Alpha  occ. eigenvalues --   -0.43913  -0.41673  -0.38229  -0.36781  -0.35798
 Alpha  occ. eigenvalues --   -0.34100  -0.31535  -0.30726  -0.30090
 Alpha virt. eigenvalues --    0.01937   0.04629   0.05491   0.07609   0.08748
 Alpha virt. eigenvalues --    0.09445   0.10093   0.10683   0.12012   0.12909
 Alpha virt. eigenvalues --    0.13406   0.14741   0.15320   0.15894   0.18854

 Mulliken atomic charges:
              1
     1  H    0.130221
     2  C   -0.389174
     3  C   -0.291130
     4  H    0.112517
     5  H    0.141012
     6  H    0.126066
     7  Si   0.566541
     8  H    0.121592
     9  O   -0.618104
    10  O   -0.329719
    11  H   -0.043562
    12  H    0.310610
    13  C   -0.213585
    14  H    0.130007
    15  H    0.118115
    16  H    0.128592
 Sum of Mulliken atomic charges =   0.00000

 Dipole moment (field-independent basis, Debye):
    X=             -0.3087    Y=             -1.3171    Z=             -0.4433  Tot=              1.4236
 Quadrupole moment (field-independent basis, Debye-Ang):
   XX=            -40.5574   YY=            -50.7481   ZZ=            -42.7696
   XY=             -1.8615   XZ=             -0.2698   YZ=             -1.8764

 Normal termination of Gaussian 09 at Fri Aug 10 03:37:33 2018.
