 Gaussian 09, Revision C.01,
 Gaussian 09:  EM64L-G09RevC.01 23-Sep-2011

 --------------------------------------
 #SP PBE1PBE/Def2TZVP geom=connectivity
 --------------------------------------

 99/5=1,9=1/99;
 --------------
 Structure: 232
 --------------
 Charge =  0 Multiplicity = 1

                         Standard orientation:
 ---------------------------------------------------------------------
 Center     Atomic      Atomic             Coordinates (Angstroms)
 Number     Number       Type             X           Y           Z
 ---------------------------------------------------------------------
      1          1           0       -3.233248   -1.173330   -0.555414
      2          6           0       -2.237037   -0.743298   -0.686890
      3          6           0       -1.623888   -0.326755    0.649383
      4          1           0       -2.346520    0.108876   -1.364479
      5          1           0       -1.618291   -1.489596   -1.191273
      6          1           0       -2.259072    0.414738    1.146507
      7         14           0        0.090438    0.385373    0.522163
      8          1           0       -1.572762   -1.186333    1.326125
      9          8           0        0.160737    1.833517   -0.485131
     10          8           0        1.031113   -0.820521   -0.077017
     11          1           0        0.629137    0.847868    1.827025
     12          1           0       -0.192308    1.772362   -1.373352
     13          6           0        2.424717   -0.714000   -0.250732
     14          1           0        2.803593   -1.678586   -0.593106
     15          1           0        2.927365   -0.457354    0.689608
     16          1           0        2.678413    0.046481   -0.995310
 ---------------------------------------------------------------------

 SCF Done:  E(RPBE1PBE) =  -560.054954765     A.U. after   13 cycles

 The electronic state is 1-A.
 Alpha  occ. eigenvalues --  -66.26713 -19.20575 -19.19475 -10.26659 -10.21852
 Alpha  occ. eigenvalues --  -10.21346  -5.34141  -3.67668  -3.67565  -3.67412
 Alpha  occ. eigenvalues --   -1.04483  -1.00105  -0.78469  -0.70795  -0.64285
 Alpha  occ. eigenvalues --   -0.55492  -0.50564  -0.47087  -0.46816  -0.46027
 Alpha  occ. eigenvalues --   -0.43748  -0.41354  -0.38155  -0.37027  -0.36385
 Alpha  occ. eigenvalues --   -0.34589  -0.31850  -0.30669  -0.30055
 Alpha virt. eigenvalues --    0.02232   0.05100   0.05773   0.07802   0.08875
 Alpha virt. eigenvalues --    0.09916   0.10462   0.10996   0.12161   0.13299
 Alpha virt. eigenvalues --    0.13562   0.15047   0.15650   0.16140   0.19058

 Mulliken atomic charges:
              1
     1  H    0.130180
     2  C   -0.391181
     3  C   -0.297029
     4  H    0.109190
     5  H    0.141672
     6  H    0.123826
     7  Si   0.557554
     8  H    0.119869
     9  O   -0.580897
    10  O   -0.333935
    11  H   -0.052503
    12  H    0.313944
    13  C   -0.212375
    14  H    0.129378
    15  H    0.117794
    16  H    0.124511
 Sum of Mulliken atomic charges =   0.00000

 Dipole moment (field-independent basis, Debye):
    X=             -0.2971    Y=             -0.9526    Z=             -0.6363  Tot=              1.1834
 Quadrupole moment (field-independent basis, Debye-Ang):
   XX=            -40.8494   YY=            -50.0237   ZZ=            -42.8196
   XY=             -1.7576   XZ=             -0.2371   YZ=             -1.8002

 Normal termination of Gaussian 09 at Fri Aug 10 05:23:49 2018.
