 Gaussian 09, Revision C.01,
 Gaussian 09:  EM64L-G09RevC.01 23-Sep-2011

 --------------------------------------
 #SP PBE1PBE/Def2TZVP geom=connectivity
 --------------------------------------

 99/5=1,9=1/99;
 --------------
 Structure: 235
 --------------
 Charge =  0 Multiplicity = 1

                         Standard orientation:
 ---------------------------------------------------------------------
 Center     Atomic      Atomic             Coordinates (Angstroms)
 Number     Number       Type             X           Y           Z
 ---------------------------------------------------------------------
      1          1           0       -3.233451   -1.171919   -0.558698
      2          6           0       -2.237172   -0.741615   -0.688762
      3          6           0       -1.624027   -0.329397    0.648853
      4          1           0       -2.346499    0.112717   -1.363653
      5          1           0       -1.618509   -1.486400   -1.195478
      6          1           0       -2.259129    0.410608    1.148294
      7         14           0        0.090407    0.382884    0.523973
      8          1           0       -1.573058   -1.191123    1.322870
      9          8           0        0.161459    1.839527   -0.482518
     10          8           0        1.030938   -0.821240   -0.078981
     11          1           0        0.629109    0.841164    1.830320
     12          1           0       -0.192464    1.780844   -1.370827
     13          6           0        2.424565   -0.714370   -0.252290
     14          1           0        2.803319   -1.677921   -0.597701
     15          1           0        2.927205   -0.460778    0.688882
     16          1           0        2.678407    0.048430   -0.994443
 ---------------------------------------------------------------------

 SCF Done:  E(RPBE1PBE) =  -560.054304938     A.U. after   13 cycles

 The electronic state is 1-A.
 Alpha  occ. eigenvalues --  -66.26781 -19.20605 -19.19432 -10.26670 -10.21860
 Alpha  occ. eigenvalues --  -10.21374  -5.34199  -3.67727  -3.67623  -3.67469
 Alpha  occ. eigenvalues --   -1.04500  -0.99975  -0.78485  -0.70810  -0.64300
 Alpha  occ. eigenvalues --   -0.55442  -0.50511  -0.47101  -0.46827  -0.46033
 Alpha  occ. eigenvalues --   -0.43759  -0.41376  -0.38147  -0.36993  -0.36376
 Alpha  occ. eigenvalues --   -0.34539  -0.31834  -0.30678  -0.30070
 Alpha virt. eigenvalues --    0.02219   0.05072   0.05756   0.07791   0.08868
 Alpha virt. eigenvalues --    0.09894   0.10435   0.10973   0.12152   0.13276
 Alpha virt. eigenvalues --    0.13547   0.15032   0.15625   0.16121   0.19045

 Mulliken atomic charges:
              1
     1  H    0.130188
     2  C   -0.391046
     3  C   -0.296641
     4  H    0.109382
     5  H    0.141644
     6  H    0.123978
     7  Si   0.558218
     8  H    0.119993
     9  O   -0.583435
    10  O   -0.333664
    11  H   -0.051921
    12  H    0.313741
    13  C   -0.212443
    14  H    0.129411
    15  H    0.117805
    16  H    0.124790
 Sum of Mulliken atomic charges =   0.00000

 Dipole moment (field-independent basis, Debye):
    X=             -0.2997    Y=             -0.9752    Z=             -0.6225  Tot=              1.1952
 Quadrupole moment (field-independent basis, Debye-Ang):
   XX=            -40.8303   YY=            -50.0689   ZZ=            -42.8184
   XY=             -1.7662   XZ=             -0.2372   YZ=             -1.8019

 Normal termination of Gaussian 09 at Fri Aug 10 05:44:25 2018.
