 Gaussian 09, Revision C.01,
 Gaussian 09:  EM64L-G09RevC.01 23-Sep-2011

 --------------------------------------
 #SP PBE1PBE/Def2TZVP geom=connectivity
 --------------------------------------

 99/5=1,9=1/99;
 --------------
 Structure: 218
 --------------
 Charge =  0 Multiplicity = 1

                         Standard orientation:
 ---------------------------------------------------------------------
 Center     Atomic      Atomic             Coordinates (Angstroms)
 Number     Number       Type             X           Y           Z
 ---------------------------------------------------------------------
      1          1           0       -3.232616   -1.179018   -0.540886
      2          6           0       -2.236644   -0.750375   -0.678560
      3          6           0       -1.623424   -0.314932    0.651641
      4          1           0       -2.346684    0.092209   -1.367948
      5          1           0       -1.617635   -1.503335   -1.172615
      6          1           0       -2.258870    0.433113    1.138508
      7         14           0        0.090526    0.396189    0.514135
      8          1           0       -1.571736   -1.164961    1.340298
      9          8           0        0.158822    1.807473   -0.496529
     10          8           0        1.031670   -0.817486   -0.068365
     11          1           0        0.629266    0.877105    1.812304
     12          1           0       -0.194448    1.733610   -1.384721
     13          6           0        2.425185   -0.712719   -0.243844
     14          1           0        2.804465   -1.681802   -0.572810
     15          1           0        2.927901   -0.442734    0.692716
     16          1           0        2.678355    0.037425   -0.999013
 ---------------------------------------------------------------------

 SCF Done:  E(RPBE1PBE) =  -560.057477466     A.U. after   12 cycles

 The electronic state is 1-A.
 Alpha  occ. eigenvalues --  -66.26411 -19.20440 -19.19681 -10.26608 -10.21822
 Alpha  occ. eigenvalues --  -10.21231  -5.33883  -3.67409  -3.67306  -3.67156
 Alpha  occ. eigenvalues --   -1.04415  -1.00633  -0.78405  -0.70728  -0.64227
 Alpha  occ. eigenvalues --   -0.55706  -0.50753  -0.47026  -0.46767  -0.46010
 Alpha  occ. eigenvalues --   -0.43702  -0.41255  -0.38248  -0.37163  -0.36409
 Alpha  occ. eigenvalues --   -0.34830  -0.31897  -0.30626  -0.29981
 Alpha virt. eigenvalues --    0.02262   0.05216   0.05842   0.07855   0.08897
 Alpha virt. eigenvalues --    0.09993   0.10573   0.11094   0.12198   0.13380
 Alpha virt. eigenvalues --    0.13643   0.15105   0.15751   0.16224   0.19114

 Mulliken atomic charges:
              1
     1  H    0.130182
     2  C   -0.391740
     3  C   -0.298890
     4  H    0.108266
     5  H    0.141861
     6  H    0.123212
     7  Si   0.553952
     8  H    0.119386
     9  O   -0.569424
    10  O   -0.335131
    11  H   -0.055081
    12  H    0.315163
    13  C   -0.212071
    14  H    0.129221
    15  H    0.117732
    16  H    0.123362
 Sum of Mulliken atomic charges =   0.00000

 Dipole moment (field-independent basis, Debye):
    X=             -0.2935    Y=             -0.8585    Z=             -0.6961  Tot=              1.1435
 Quadrupole moment (field-independent basis, Debye-Ang):
   XX=            -40.9302   YY=            -49.8390   ZZ=            -42.8284
   XY=             -1.7305   XZ=             -0.2286   YZ=             -1.7875

 Normal termination of Gaussian 09 at Fri Aug 10 03:49:42 2018.
