 Gaussian 09, Revision C.01,
 Gaussian 09:  EM64L-G09RevC.01 23-Sep-2011

 --------------------------------------
 #SP PBE1PBE/Def2TZVP geom=connectivity
 --------------------------------------

 99/5=1,9=1/99;
 --------------
 Structure: 206
 --------------
 Charge =  0 Multiplicity = 1

                         Standard orientation:
 ---------------------------------------------------------------------
 Center     Atomic      Atomic             Coordinates (Angstroms)
 Number     Number       Type             X           Y           Z
 ---------------------------------------------------------------------
      1          1           0       -3.232035   -1.183635   -0.528858
      2          6           0       -2.236269   -0.756174   -0.671609
      3          6           0       -1.623012   -0.305251    0.653408
      4          1           0       -2.346787    0.078406   -1.370590
      5          1           0       -1.617022   -1.514484   -1.157108
      6          1           0       -2.258695    0.448055    1.131778
      7         14           0        0.090611    0.404977    0.507462
      8          1           0       -1.570844   -1.147309    1.351753
      9          8           0        0.157045    1.786023   -0.506012
     10          8           0        1.032176   -0.814895   -0.061252
     11          1           0        0.629364    0.900970    1.799939
     12          1           0       -0.196272    1.701995   -1.392254
     13          6           0        2.425616   -0.711553   -0.238163
     14          1           0        2.805255   -1.684182   -0.556065
     15          1           0        2.928374   -0.430637    0.695154
     16          1           0        2.678338    0.029993   -1.001924
 ---------------------------------------------------------------------

 SCF Done:  E(RPBE1PBE) =  -560.059117671     A.U. after   12 cycles

 The electronic state is 1-A.
 Alpha  occ. eigenvalues --  -66.26158 -19.20331 -19.19827 -10.26567 -10.21798
 Alpha  occ. eigenvalues --  -10.21137  -5.33672  -3.67198  -3.67093  -3.66945
 Alpha  occ. eigenvalues --   -1.04377  -1.01100  -0.78354  -0.70674  -0.64182
 Alpha  occ. eigenvalues --   -0.55930  -0.50896  -0.46978  -0.46728  -0.45999
 Alpha  occ. eigenvalues --   -0.43665  -0.41177  -0.38394  -0.37234  -0.36422
 Alpha  occ. eigenvalues --   -0.35053  -0.31917  -0.30586  -0.29914
 Alpha virt. eigenvalues --    0.02289   0.05308   0.05896   0.07896   0.08921
 Alpha virt. eigenvalues --    0.10047   0.10656   0.11177   0.12228   0.13425
 Alpha virt. eigenvalues --    0.13732   0.15146   0.15845   0.16300   0.19162

 Mulliken atomic charges:
              1
     1  H    0.130185
     2  C   -0.392181
     3  C   -0.300536
     4  H    0.107536
     5  H    0.142017
     6  H    0.122712
     7  Si   0.550667
     8  H    0.118992
     9  O   -0.559275
    10  O   -0.336130
    11  H   -0.057210
    12  H    0.315854
    13  C   -0.211852
    14  H    0.129099
    15  H    0.117681
    16  H    0.122440
 Sum of Mulliken atomic charges =   0.00000

 Dipole moment (field-independent basis, Debye):
    X=             -0.2905    Y=             -0.7837    Z=             -0.7438  Tot=              1.1188
 Quadrupole moment (field-independent basis, Debye-Ang):
   XX=            -40.9928   YY=            -49.6893   ZZ=            -42.8392
   XY=             -1.7087   XZ=             -0.2215   YZ=             -1.7751

 Normal termination of Gaussian 09 at Fri Aug 10 02:33:13 2018.
