 Gaussian 09, Revision C.01,
 Gaussian 09:  EM64L-G09RevC.01 23-Sep-2011

 --------------------------------------
 #SP PBE1PBE/Def2TZVP geom=connectivity
 --------------------------------------

 99/5=1,9=1/99;
 --------------
 Structure: 254
 --------------
 Charge =  0 Multiplicity = 1

                         Standard orientation:
 ---------------------------------------------------------------------
 Center     Atomic      Atomic             Coordinates (Angstroms)
 Number     Number       Type             X           Y           Z
 ---------------------------------------------------------------------
      1          1           0       -3.234280   -1.164457   -0.577266
      2          6           0       -2.237681   -0.732551   -0.699313
      3          6           0       -1.624635   -0.344840    0.645655
      4          1           0       -2.346255    0.133842   -1.358775
      5          1           0       -1.619370   -1.468525   -1.219164
      6          1           0       -2.259386    0.386496    1.158141
      7         14           0        0.090305    0.368426    0.534048
      8          1           0       -1.574423   -1.218570    1.304095
      9          8           0        0.163852    1.874545   -0.467068
     10          8           0        1.030206   -0.825298   -0.090191
     11          1           0        0.628948    0.802802    1.848561
     12          1           0       -0.188951    1.832463   -1.356493
     13          6           0        2.423952   -0.716261   -0.261182
     14          1           0        2.802164   -1.673704   -0.623748
     15          1           0        2.926498   -0.479954    0.684528
     16          1           0        2.678505    0.059579   -0.989443
 ---------------------------------------------------------------------

 SCF Done:  E(RPBE1PBE) =  -560.050054685     A.U. after   13 cycles

 The electronic state is 1-A.
 Alpha  occ. eigenvalues --  -66.27165 -19.20787 -19.19154 -10.26742 -10.21900
 Alpha  occ. eigenvalues --  -10.21525  -5.34533  -3.68064  -3.67958  -3.67799
 Alpha  occ. eigenvalues --   -1.04614  -0.99262  -0.78569  -0.70902  -0.64378
 Alpha  occ. eigenvalues --   -0.55227  -0.50206  -0.47184  -0.46895  -0.46055
 Alpha  occ. eigenvalues --   -0.43820  -0.41499  -0.38141  -0.36826  -0.36241
 Alpha  occ. eigenvalues --   -0.34301  -0.31725  -0.30715  -0.30129
 Alpha virt. eigenvalues --    0.02141   0.04905   0.05656   0.07720   0.08829
 Alpha virt. eigenvalues --    0.09752   0.10286   0.10852   0.12100   0.13134
 Alpha virt. eigenvalues --    0.13483   0.14933   0.15494   0.16023   0.18969

 Mulliken atomic charges:
              1
     1  H    0.130190
     2  C   -0.390316
     3  C   -0.294322
     4  H    0.110628
     5  H    0.141382
     6  H    0.124792
     7  Si   0.562151
     8  H    0.120621
     9  O   -0.597807
    10  O   -0.332107
    11  H   -0.048566
    12  H    0.312390
    13  C   -0.212877
    14  H    0.129638
    15  H    0.117914
    16  H    0.126289
 Sum of Mulliken atomic charges =   0.00000

 Dipole moment (field-independent basis, Debye):
    X=             -0.3025    Y=             -1.1059    Z=             -0.5489  Tot=              1.2711
 Quadrupole moment (field-independent basis, Debye-Ang):
   XX=            -40.7237   YY=            -50.3271   ZZ=            -42.8000
   XY=             -1.8016   XZ=             -0.2510   YZ=             -1.8284

 Normal termination of Gaussian 09 at Fri Aug 10 00:15:36 2018.
