 Gaussian 09, Revision C.01,
 Gaussian 09:  EM64L-G09RevC.01 23-Sep-2011

 --------------------------------------
 #SP PBE1PBE/Def2TZVP geom=connectivity
 --------------------------------------

 99/5=1,9=1/99;
 --------------
 Structure: 281
 --------------
 Charge =  0 Multiplicity = 1

                         Standard orientation:
 ---------------------------------------------------------------------
 Center     Atomic      Atomic             Coordinates (Angstroms)
 Number     Number       Type             X           Y           Z
 ---------------------------------------------------------------------
      1          1           0       -3.235650   -1.153719   -0.602015
      2          6           0       -2.238542   -0.720064   -0.713218
      3          6           0       -1.625626   -0.365609    0.640954
      4          1           0       -2.345926    0.162120   -1.351603
      5          1           0       -1.620806   -1.443932   -1.250459
      6          1           0       -2.259803    0.353818    1.170715
      7         14           0        0.090119    0.348299    0.547255
      8          1           0       -1.576611   -1.255041    1.278118
      9          8           0        0.168018    1.923340   -0.445711
     10          8           0        1.028999   -0.831010   -0.105280
     11          1           0        0.628693    0.750221    1.872079
     12          1           0       -0.184470    1.903131   -1.336027
     13          6           0        2.422929   -0.719374   -0.273060
     14          1           0        2.800266   -1.668186   -0.658502
     15          1           0        2.925344   -0.506517    0.678271
     16          1           0        2.678603    0.073556   -0.982273
 ---------------------------------------------------------------------

 SCF Done:  E(RPBE1PBE) =  -560.043027647     A.U. after   13 cycles

 The electronic state is 1-A.
 Alpha  occ. eigenvalues --  -66.27670 -19.21040 -19.18759 -10.26842 -10.21960
 Alpha  occ. eigenvalues --  -10.21736  -5.34983  -3.68519  -3.68408  -3.68242
 Alpha  occ. eigenvalues --   -1.04790  -0.98301  -0.78690  -0.71032  -0.64491
 Alpha  occ. eigenvalues --   -0.55034  -0.49728  -0.47297  -0.46989  -0.46086
 Alpha  occ. eigenvalues --   -0.43905  -0.41660  -0.38220  -0.36779  -0.35846
 Alpha  occ. eigenvalues --   -0.34111  -0.31550  -0.30727  -0.30105
 Alpha virt. eigenvalues --    0.01966   0.04655   0.05507   0.07620   0.08760
 Alpha virt. eigenvalues --    0.09479   0.10108   0.10698   0.12022   0.12929
 Alpha virt. eigenvalues --    0.13414   0.14761   0.15339   0.15905   0.18865

 Mulliken atomic charges:
              1
     1  H    0.130220
     2  C   -0.389276
     3  C   -0.291441
     4  H    0.112355
     5  H    0.141053
     6  H    0.125945
     7  Si   0.566209
     8  H    0.121515
     9  O   -0.616152
    10  O   -0.329954
    11  H   -0.044026
    12  H    0.310633
    13  C   -0.213506
    14  H    0.129965
    15  H    0.118082
    16  H    0.128380
 Sum of Mulliken atomic charges =   0.00000

 Dipole moment (field-independent basis, Debye):
    X=             -0.3096    Y=             -1.2963    Z=             -0.4515  Tot=              1.4071
 Quadrupole moment (field-independent basis, Debye-Ang):
   XX=            -40.5733   YY=            -50.7042   ZZ=            -42.7743
   XY=             -1.8575   XZ=             -0.2685   YZ=             -1.8696

 Normal termination of Gaussian 09 at Fri Aug 10 03:17:45 2018.
