 Gaussian 09, Revision C.01,
 Gaussian 09:  EM64L-G09RevC.01 23-Sep-2011

 --------------------------------------
 #SP PBE1PBE/Def2TZVP geom=connectivity
 --------------------------------------

 99/5=1,9=1/99;
 --------------
 Structure: 271
 --------------
 Charge =  0 Multiplicity = 1

                         Standard orientation:
 ---------------------------------------------------------------------
 Center     Atomic      Atomic             Coordinates (Angstroms)
 Number     Number       Type             X           Y           Z
 ---------------------------------------------------------------------
      1          1           0       -3.234901   -1.158165   -0.592945
      2          6           0       -2.238044   -0.724974   -0.708138
      3          6           0       -1.625086   -0.358281    0.642752
      4          1           0       -2.346009    0.151497   -1.354248
      5          1           0       -1.620013   -1.453215   -1.239092
      6          1           0       -2.259557    0.365445    1.166268
      7         14           0        0.090261    0.355689    0.542468
      8          1           0       -1.575487   -1.242041    1.287715
      9          8           0        0.165636    1.905623   -0.453499
     10          8           0        1.029659   -0.828820   -0.099821
     11          1           0        0.628848    0.769549    1.863606
     12          1           0       -0.186994    1.877386   -1.343539
     13          6           0        2.423501   -0.717923   -0.268823
     14          1           0        2.801279   -1.669892   -0.645962
     15          1           0        2.925965   -0.496430    0.680508
     16          1           0        2.678629    0.068866   -0.985037
 ---------------------------------------------------------------------

 SCF Done:  E(RPBE1PBE) =  -560.045726126     A.U. after   13 cycles

 The electronic state is 1-A.
 Alpha  occ. eigenvalues --  -66.27489 -19.20949 -19.18905 -10.26806 -10.21937
 Alpha  occ. eigenvalues --  -10.21657  -5.34820  -3.68354  -3.68246  -3.68082
 Alpha  occ. eigenvalues --   -1.04725  -0.98647  -0.78645  -0.70985  -0.64448
 Alpha  occ. eigenvalues --   -0.55091  -0.49907  -0.47257  -0.46956  -0.46074
 Alpha  occ. eigenvalues --   -0.43874  -0.41603  -0.38184  -0.36777  -0.36007
 Alpha  occ. eigenvalues --   -0.34163  -0.31611  -0.30729  -0.30133
 Alpha virt. eigenvalues --    0.02040   0.04749   0.05563   0.07657   0.08788
 Alpha virt. eigenvalues --    0.09587   0.10168   0.10753   0.12051   0.13003
 Alpha virt. eigenvalues --    0.13438   0.14828   0.15393   0.15946   0.18903

 Mulliken atomic charges:
              1
     1  H    0.130203
     2  C   -0.389658
     3  C   -0.292451
     4  H    0.111711
     5  H    0.141165
     6  H    0.125522
     7  Si   0.564910
     8  H    0.121173
     9  O   -0.609643
    10  O   -0.330735
    11  H   -0.045669
    12  H    0.311264
    13  C   -0.213290
    14  H    0.129850
    15  H    0.118027
    16  H    0.127621
 Sum of Mulliken atomic charges =   0.00000

 Dipole moment (field-independent basis, Debye):
    X=             -0.3054    Y=             -1.2260    Z=             -0.4865  Tot=              1.3539
 Quadrupole moment (field-independent basis, Debye-Ang):
   XX=            -40.6270   YY=            -50.5659   ZZ=            -42.7841
   XY=             -1.8346   XZ=             -0.2612   YZ=             -1.8534

 Normal termination of Gaussian 09 at Fri Aug 10 02:11:22 2018.
