 Gaussian 09, Revision C.01,
 Gaussian 09:  EM64L-G09RevC.01 23-Sep-2011

 --------------------------------------
 #SP PBE1PBE/Def2TZVP geom=connectivity
 --------------------------------------

 99/5=1,9=1/99;
 --------------
 Structure: 286
 --------------
 Charge =  0 Multiplicity = 1

                         Standard orientation:
 ---------------------------------------------------------------------
 Center     Atomic      Atomic             Coordinates (Angstroms)
 Number     Number       Type             X           Y           Z
 ---------------------------------------------------------------------
      1          1           0       -3.235807   -1.152064   -0.606202
      2          6           0       -2.238630   -0.718097   -0.715554
      3          6           0       -1.625734   -0.369352    0.640108
      4          1           0       -2.345851    0.166743   -1.350280
      5          1           0       -1.620971   -1.439820   -1.255761
      6          1           0       -2.259834    0.347964    1.172816
      7         14           0        0.090120    0.344689    0.549461
      8          1           0       -1.576882   -1.261426    1.273580
      9          8           0        0.168442    1.932366   -0.441755
     10          8           0        1.028862   -0.832040   -0.107911
     11          1           0        0.628683    0.741033    1.875969
     12          1           0       -0.184073    1.915813   -1.333159
     13          6           0        2.422818   -0.719913   -0.275154
     14          1           0        2.800037   -1.667173   -0.664509
     15          1           0        2.925214   -0.511077    0.677078
     16          1           0        2.678644    0.075914   -0.981059
 ---------------------------------------------------------------------

 SCF Done:  E(RPBE1PBE) =  -560.041643136     A.U. after   14 cycles

 The electronic state is 1-A.
 Alpha  occ. eigenvalues --  -66.27757 -19.21086 -19.18695 -10.26861 -10.21970
 Alpha  occ. eigenvalues --  -10.21773  -5.35061  -3.68599  -3.68487  -3.68319
 Alpha  occ. eigenvalues --   -1.04825  -0.98110  -0.78712  -0.71056  -0.64511
 Alpha  occ. eigenvalues --   -0.55007  -0.49631  -0.47317  -0.47006  -0.46089
 Alpha  occ. eigenvalues --   -0.43919  -0.41685  -0.38238  -0.36784  -0.35763
 Alpha  occ. eigenvalues --   -0.34092  -0.31524  -0.30724  -0.30079
 Alpha virt. eigenvalues --    0.01919   0.04609   0.05479   0.07601   0.08741
 Alpha virt. eigenvalues --    0.09422   0.10081   0.10672   0.12007   0.12894
 Alpha virt. eigenvalues --    0.13401   0.14727   0.15309   0.15886   0.18846

 Mulliken atomic charges:
              1
     1  H    0.130226
     2  C   -0.389094
     3  C   -0.290928
     4  H    0.112654
     5  H    0.140991
     6  H    0.126153
     7  Si   0.566781
     8  H    0.121666
     9  O   -0.619429
    10  O   -0.329558
    11  H   -0.043221
    12  H    0.310483
    13  C   -0.213626
    14  H    0.130030
    15  H    0.118123
    16  H    0.128749
 Sum of Mulliken atomic charges =   0.00000

 Dipole moment (field-independent basis, Debye):
    X=             -0.3100    Y=             -1.3318    Z=             -0.4361  Tot=              1.4352
 Quadrupole moment (field-independent basis, Debye-Ang):
   XX=            -40.5467   YY=            -50.7767   ZZ=            -42.7674
   XY=             -1.8669   XZ=             -0.2715   YZ=             -1.8801

 Normal termination of Gaussian 09 at Fri Aug 10 03:51:44 2018.
