 Gaussian 09, Revision C.01,
 Gaussian 09:  EM64L-G09RevC.01 23-Sep-2011

 --------------------------------------
 #SP PBE1PBE/Def2TZVP geom=connectivity
 --------------------------------------

 99/5=1,9=1/99;
 --------------
 Structure: 203
 --------------
 Charge =  0 Multiplicity = 1

                         Standard orientation:
 ---------------------------------------------------------------------
 Center     Atomic      Atomic             Coordinates (Angstroms)
 Number     Number       Type             X           Y           Z
 ---------------------------------------------------------------------
      1          1           0       -3.231812   -1.185089   -0.525291
      2          6           0       -2.236119   -0.757962   -0.669540
      3          6           0       -1.622851   -0.302486    0.653914
      4          1           0       -2.346804    0.074243   -1.371322
      5          1           0       -1.616786   -1.517809   -1.152519
      6          1           0       -2.258620    0.452331    1.129782
      7         14           0        0.090655    0.407504    0.505475
      8          1           0       -1.570515   -1.142179    1.355088
      9          8           0        0.156333    1.779937   -0.508685
     10          8           0        1.032371   -0.814134   -0.059183
     11          1           0        0.629410    0.907929    1.796242
     12          1           0       -0.197023    1.692873   -1.394618
     13          6           0        2.425785   -0.711178   -0.236524
     14          1           0        2.805552   -1.684815   -0.551171
     15          1           0        2.928556   -0.427044    0.695811
     16          1           0        2.678349    0.027829   -1.002794
 ---------------------------------------------------------------------

 SCF Done:  E(RPBE1PBE) =  -560.059513502     A.U. after   12 cycles

 The electronic state is 1-A.
 Alpha  occ. eigenvalues --  -66.26084 -19.20301 -19.19870 -10.26556 -10.21791
 Alpha  occ. eigenvalues --  -10.21110  -5.33611  -3.67136  -3.67031  -3.66884
 Alpha  occ. eigenvalues --   -1.04369  -1.01228  -0.78339  -0.70659  -0.64168
 Alpha  occ. eigenvalues --   -0.55997  -0.50932  -0.46965  -0.46717  -0.45996
 Alpha  occ. eigenvalues --   -0.43655  -0.41154  -0.38446  -0.37245  -0.36427
 Alpha  occ. eigenvalues --   -0.35119  -0.31919  -0.30573  -0.29893
 Alpha virt. eigenvalues --    0.02293   0.05333   0.05912   0.07908   0.08927
 Alpha virt. eigenvalues --    0.10061   0.10679   0.11201   0.12235   0.13435
 Alpha virt. eigenvalues --    0.13760   0.15157   0.15871   0.16323   0.19175

 Mulliken atomic charges:
              1
     1  H    0.130186
     2  C   -0.392311
     3  C   -0.301017
     4  H    0.107320
     5  H    0.142061
     6  H    0.122568
     7  Si   0.549653
     8  H    0.118873
     9  O   -0.556312
    10  O   -0.336419
    11  H   -0.057828
    12  H    0.316110
    13  C   -0.211795
    14  H    0.129066
    15  H    0.117672
    16  H    0.122174
 Sum of Mulliken atomic charges =   0.00000

 Dipole moment (field-independent basis, Debye):
    X=             -0.2892    Y=             -0.7627    Z=             -0.7582  Tot=              1.1137
 Quadrupole moment (field-independent basis, Debye-Ang):
   XX=            -41.0107   YY=            -49.6480   ZZ=            -42.8416
   XY=             -1.7021   XZ=             -0.2193   YZ=             -1.7724

 Normal termination of Gaussian 09 at Fri Aug 10 02:14:09 2018.
