 Gaussian 09, Revision C.01,
 Gaussian 09:  EM64L-G09RevC.01 23-Sep-2011

 --------------------------------------
 #SP PBE1PBE/Def2TZVP geom=connectivity
 --------------------------------------

 99/5=1,9=1/99;
 --------------
 Structure: 288
 --------------
 Charge =  0 Multiplicity = 1

                         Standard orientation:
 ---------------------------------------------------------------------
 Center     Atomic      Atomic             Coordinates (Angstroms)
 Number     Number       Type             X           Y           Z
 ---------------------------------------------------------------------
      1          1           0       -3.236021   -1.150988   -0.608118
      2          6           0       -2.238776   -0.716964   -0.716620
      3          6           0       -1.625889   -0.370824    0.639714
      4          1           0       -2.345841    0.169067   -1.349708
      5          1           0       -1.621199   -1.437774   -1.258138
      6          1           0       -2.259909    0.345595    1.173723
      7         14           0        0.090072    0.343134    0.550466
      8          1           0       -1.577196   -1.264079    1.271531
      9          8           0        0.169143    1.935999   -0.440138
     10          8           0        1.028673   -0.832510   -0.109046
     11          1           0        0.628635    0.736939    1.877731
     12          1           0       -0.183335    1.921151   -1.331587
     13          6           0        2.422651   -0.720275   -0.276020
     14          1           0        2.799750   -1.666867   -0.667115
     15          1           0        2.925036   -0.513280    0.676620
     16          1           0        2.678625    0.076823   -0.980436
 ---------------------------------------------------------------------

 SCF Done:  E(RPBE1PBE) =  -560.041052168     A.U. after   14 cycles

 The electronic state is 1-A.
 Alpha  occ. eigenvalues --  -66.27793 -19.21105 -19.18664 -10.26868 -10.21975
 Alpha  occ. eigenvalues --  -10.21789  -5.35095  -3.68632  -3.68520  -3.68351
 Alpha  occ. eigenvalues --   -1.04838  -0.98040  -0.78721  -0.71065  -0.64520
 Alpha  occ. eigenvalues --   -0.54998  -0.49594  -0.47324  -0.47012  -0.46091
 Alpha  occ. eigenvalues --   -0.43925  -0.41697  -0.38246  -0.36787  -0.35729
 Alpha  occ. eigenvalues --   -0.34085  -0.31514  -0.30721  -0.30066
 Alpha virt. eigenvalues --    0.01902   0.04588   0.05467   0.07594   0.08734
 Alpha virt. eigenvalues --    0.09398   0.10070   0.10661   0.12001   0.12880
 Alpha virt. eigenvalues --    0.13396   0.14713   0.15298   0.15878   0.18837

 Mulliken atomic charges:
              1
     1  H    0.130230
     2  C   -0.389015
     3  C   -0.290727
     4  H    0.112791
     5  H    0.140970
     6  H    0.126240
     7  Si   0.567012
     8  H    0.121740
     9  O   -0.620743
    10  O   -0.329396
    11  H   -0.042880
    12  H    0.310355
    13  C   -0.213667
    14  H    0.130052
    15  H    0.118132
    16  H    0.128905
 Sum of Mulliken atomic charges =   0.00000

 Dipole moment (field-independent basis, Debye):
    X=             -0.3113    Y=             -1.3464    Z=             -0.4289  Tot=              1.4470
 Quadrupole moment (field-independent basis, Debye-Ang):
   XX=            -40.5359   YY=            -50.8053   ZZ=            -42.7651
   XY=             -1.8722   XZ=             -0.2732   YZ=             -1.8837

 Normal termination of Gaussian 09 at Fri Aug 10 04:06:09 2018.
