 Gaussian 09, Revision C.01,
 Gaussian 09:  EM64L-G09RevC.01 23-Sep-2011

 --------------------------------------
 #SP PBE1PBE/Def2TZVP geom=connectivity
 --------------------------------------

 99/5=1,9=1/99;
 --------------
 Structure: 215
 --------------
 Charge =  0 Multiplicity = 1

                         Standard orientation:
 ---------------------------------------------------------------------
 Center     Atomic      Atomic             Coordinates (Angstroms)
 Number     Number       Type             X           Y           Z
 ---------------------------------------------------------------------
      1          1           0       -3.232229   -1.180458   -0.538091
      2          6           0       -2.236366   -0.751938   -0.676931
      3          6           0       -1.623157   -0.312943    0.652107
      4          1           0       -2.346650    0.088851   -1.368470
      5          1           0       -1.617216   -1.506018   -1.169097
      6          1           0       -2.258744    0.436200    1.137098
      7         14           0        0.090618    0.398222    0.512660
      8          1           0       -1.571224   -1.161192    1.342937
      9          8           0        0.157548    1.802430   -0.498823
     10          8           0        1.032005   -0.816724   -0.066791
     11          1           0        0.629335    0.882590    1.809554
     12          1           0       -0.195693    1.726361   -1.385813
     13          6           0        2.425483   -0.712082   -0.242635
     14          1           0        2.804966   -1.681917   -0.569141
     15          1           0        2.928200   -0.439580    0.693195
     16          1           0        2.678427    0.036182   -0.999742
 ---------------------------------------------------------------------

 SCF Done:  E(RPBE1PBE) =  -560.057890390     A.U. after   12 cycles

 The electronic state is 1-A.
 Alpha  occ. eigenvalues --  -66.26354 -19.20416 -19.19707 -10.26599 -10.21816
 Alpha  occ. eigenvalues --  -10.21208  -5.33836  -3.67362  -3.67258  -3.67109
 Alpha  occ. eigenvalues --   -1.04406  -1.00757  -0.78392  -0.70716  -0.64216
 Alpha  occ. eigenvalues --   -0.55764  -0.50793  -0.47016  -0.46758  -0.46007
 Alpha  occ. eigenvalues --   -0.43693  -0.41239  -0.38275  -0.37185  -0.36411
 Alpha  occ. eigenvalues --   -0.34881  -0.31905  -0.30617  -0.29967
 Alpha virt. eigenvalues --    0.02275   0.05238   0.05855   0.07864   0.08906
 Alpha virt. eigenvalues --    0.10006   0.10594   0.11113   0.12205   0.13391
 Alpha virt. eigenvalues --    0.13661   0.15115   0.15779   0.16242   0.19126

 Mulliken atomic charges:
              1
     1  H    0.130178
     2  C   -0.391839
     3  C   -0.299272
     4  H    0.108092
     5  H    0.141891
     6  H    0.123089
     7  Si   0.553293
     8  H    0.119275
     9  O   -0.567035
    10  O   -0.335349
    11  H   -0.055552
    12  H    0.315191
    13  C   -0.212042
    14  H    0.129197
    15  H    0.117722
    16  H    0.123160
 Sum of Mulliken atomic charges =   0.00000

 Dipole moment (field-independent basis, Debye):
    X=             -0.2914    Y=             -0.8408    Z=             -0.7059  Tot=              1.1358
 Quadrupole moment (field-independent basis, Debye-Ang):
   XX=            -40.9427   YY=            -49.8030   ZZ=            -42.8326
   XY=             -1.7234   XZ=             -0.2259   YZ=             -1.7825

 Normal termination of Gaussian 09 at Fri Aug 10 03:30:23 2018.
