 Gaussian 09, Revision C.01,
 Gaussian 09:  EM64L-G09RevC.01 23-Sep-2011

 --------------------------------------
 #SP PBE1PBE/Def2TZVP geom=connectivity
 --------------------------------------

 99/5=1,9=1/99;
 --------------
 Structure: 213
 --------------
 Charge =  0 Multiplicity = 1

                         Standard orientation:
 ---------------------------------------------------------------------
 Center     Atomic      Atomic             Coordinates (Angstroms)
 Number     Number       Type             X           Y           Z
 ---------------------------------------------------------------------
      1          1           0       -3.232357   -1.180928   -0.536132
      2          6           0       -2.236474   -0.752731   -0.675820
      3          6           0       -1.623241   -0.311141    0.652348
      4          1           0       -2.346718    0.086696   -1.369018
      5          1           0       -1.617360   -1.507811   -1.166496
      6          1           0       -2.258791    0.438989    1.135859
      7         14           0        0.090568    0.399664    0.511493
      8          1           0       -1.571348   -1.158026    1.344852
      9          8           0        0.158014    1.799068   -0.500321
     10          8           0        1.031895   -0.816470   -0.065558
     11          1           0        0.629311    0.886567    1.807427
     12          1           0       -0.195233    1.721264   -1.387158
     13          6           0        2.425379   -0.712243   -0.241610
     14          1           0        2.804814   -1.682740   -0.566201
     15          1           0        2.928110   -0.437918    0.693679
     16          1           0        2.678357    0.034511   -1.000194
 ---------------------------------------------------------------------

 SCF Done:  E(RPBE1PBE) =  -560.058168312     A.U. after   12 cycles

 The electronic state is 1-A.
 Alpha  occ. eigenvalues --  -66.26313 -19.20398 -19.19734 -10.26592 -10.21813
 Alpha  occ. eigenvalues --  -10.21194  -5.33801  -3.67327  -3.67223  -3.67074
 Alpha  occ. eigenvalues --   -1.04399  -1.00830  -0.78385  -0.70707  -0.64209
 Alpha  occ. eigenvalues --   -0.55796  -0.50815  -0.47008  -0.46752  -0.46006
 Alpha  occ. eigenvalues --   -0.43688  -0.41225  -0.38299  -0.37197  -0.36414
 Alpha  occ. eigenvalues --   -0.34917  -0.31908  -0.30612  -0.29957
 Alpha virt. eigenvalues --    0.02278   0.05253   0.05864   0.07871   0.08909
 Alpha virt. eigenvalues --    0.10015   0.10606   0.11127   0.12210   0.13400
 Alpha virt. eigenvalues --    0.13676   0.15122   0.15791   0.16253   0.19133

 Mulliken atomic charges:
              1
     1  H    0.130182
     2  C   -0.391906
     3  C   -0.299542
     4  H    0.107986
     5  H    0.141921
     6  H    0.123019
     7  Si   0.552710
     8  H    0.119232
     9  O   -0.565376
    10  O   -0.335519
    11  H   -0.055923
    12  H    0.315311
    13  C   -0.211990
    14  H    0.129175
    15  H    0.117715
    16  H    0.123006
 Sum of Mulliken atomic charges =   0.00000

 Dipole moment (field-independent basis, Debye):
    X=             -0.2922    Y=             -0.8291    Z=             -0.7142  Tot=              1.1326
 Quadrupole moment (field-independent basis, Debye-Ang):
   XX=            -40.9536   YY=            -49.7795   ZZ=            -42.8346
   XY=             -1.7219   XZ=             -0.2259   YZ=             -1.7812

 Normal termination of Gaussian 09 at Fri Aug 10 03:17:42 2018.
