 Gaussian 09, Revision C.01,
 Gaussian 09:  EM64L-G09RevC.01 23-Sep-2011

 --------------------------------------
 #SP PBE1PBE/Def2TZVP geom=connectivity
 --------------------------------------

 99/5=1,9=1/99;
 --------------
 Structure: 223
 --------------
 Charge =  0 Multiplicity = 1

                         Standard orientation:
 ---------------------------------------------------------------------
 Center     Atomic      Atomic             Coordinates (Angstroms)
 Number     Number       Type             X           Y           Z
 ---------------------------------------------------------------------
      1          1           0       -3.232718   -1.177109   -0.546230
      2          6           0       -2.236690   -0.747868   -0.681620
      3          6           0       -1.623508   -0.319384    0.650856
      4          1           0       -2.346595    0.098286   -1.366644
      5          1           0       -1.617732   -1.498328   -1.179527
      6          1           0       -2.258903    0.426200    1.141548
      7         14           0        0.090528    0.392253    0.517141
      8          1           0       -1.571957   -1.172972    1.335106
      9          8           0        0.159087    1.816846   -0.492471
     10          8           0        1.031577   -0.818494   -0.071574
     11          1           0        0.629238    0.866383    1.817816
     12          1           0       -0.194063    1.747766   -1.380070
     13          6           0        2.425115   -0.712972   -0.246421
     14          1           0        2.804310   -1.680381   -0.580375
     15          1           0        2.927800   -0.447894    0.691556
     16          1           0        2.678414    0.041043   -0.997681
 ---------------------------------------------------------------------

 SCF Done:  E(RPBE1PBE) =  -560.056620363     A.U. after   13 cycles

 The electronic state is 1-A.
 Alpha  occ. eigenvalues --  -66.26523 -19.20490 -19.19600 -10.26627 -10.21832
 Alpha  occ. eigenvalues --  -10.21272  -5.33978  -3.67505  -3.67401  -3.67250
 Alpha  occ. eigenvalues --   -1.04439  -1.00454  -0.78428  -0.70753  -0.64248
 Alpha  occ. eigenvalues --   -0.55630  -0.50692  -0.47049  -0.46785  -0.46016
 Alpha  occ. eigenvalues --   -0.43718  -0.41293  -0.38204  -0.37120  -0.36403
 Alpha  occ. eigenvalues --   -0.34739  -0.31884  -0.30642  -0.30010
 Alpha virt. eigenvalues --    0.02258   0.05175   0.05817   0.07836   0.08892
 Alpha virt. eigenvalues --    0.09967   0.10534   0.11058   0.12185   0.13353
 Alpha virt. eigenvalues --    0.13610   0.15086   0.15719   0.16193   0.19094

 Mulliken atomic charges:
              1
     1  H    0.130178
     2  C   -0.391533
     3  C   -0.298208
     4  H    0.108602
     5  H    0.141789
     6  H    0.123430
     7  Si   0.555366
     8  H    0.119552
     9  O   -0.573598
    10  O   -0.334688
    11  H   -0.054126
    12  H    0.314606
    13  C   -0.212191
    14  H    0.129279
    15  H    0.117752
    16  H    0.123788
 Sum of Mulliken atomic charges =   0.00000

 Dipole moment (field-independent basis, Debye):
    X=             -0.2941    Y=             -0.8921    Z=             -0.6731  Tot=              1.1557
 Quadrupole moment (field-independent basis, Debye-Ang):
   XX=            -40.8997   YY=            -49.9043   ZZ=            -42.8267
   XY=             -1.7392   XZ=             -0.2311   YZ=             -1.7903

 Normal termination of Gaussian 09 at Fri Aug 10 04:21:50 2018.
