 Gaussian 09, Revision C.01,
 Gaussian 09:  EM64L-G09RevC.01 23-Sep-2011

 --------------------------------------
 #SP PBE1PBE/Def2TZVP geom=connectivity
 --------------------------------------

 99/5=1,9=1/99;
 --------------
 Structure: 246
 --------------
 Charge =  0 Multiplicity = 1

                         Standard orientation:
 ---------------------------------------------------------------------
 Center     Atomic      Atomic             Coordinates (Angstroms)
 Number     Number       Type             X           Y           Z
 ---------------------------------------------------------------------
      1          1           0       -3.233928   -1.167849   -0.569051
      2          6           0       -2.237468   -0.736646   -0.694669
      3          6           0       -1.624371   -0.338023    0.647082
      4          1           0       -2.346371    0.124417   -1.361020
      5          1           0       -1.619008   -1.476573   -1.208697
      6          1           0       -2.259269    0.397203    1.153786
      7         14           0        0.090351    0.374821    0.529567
      8          1           0       -1.573827   -1.206449    1.312478
      9          8           0        0.162789    1.859311   -0.473729
     10          8           0        1.030520   -0.823584   -0.085229
     11          1           0        0.629028    0.819843    1.840500
     12          1           0       -0.190180    1.809896   -1.363736
     13          6           0        2.424213   -0.715517   -0.257258
     14          1           0        2.802657   -1.675718   -0.612208
     15          1           0        2.926806   -0.471516    0.686471
     16          1           0        2.678455    0.054552   -0.991727
 ---------------------------------------------------------------------

 SCF Done:  E(RPBE1PBE) =  -560.052020937     A.U. after   13 cycles

 The electronic state is 1-A.
 Alpha  occ. eigenvalues --  -66.26997 -19.20707 -19.19286 -10.26711 -10.21882
 Alpha  occ. eigenvalues --  -10.21457  -5.34386  -3.67915  -3.67811  -3.67654
 Alpha  occ. eigenvalues --   -1.04562  -0.99555  -0.78531  -0.70862  -0.64342
 Alpha  occ. eigenvalues --   -0.55307  -0.50339  -0.47147  -0.46865  -0.46043
 Alpha  occ. eigenvalues --   -0.43792  -0.41443  -0.38133  -0.36885  -0.36318
 Alpha  occ. eigenvalues --   -0.34394  -0.31777  -0.30701  -0.30108
 Alpha virt. eigenvalues --    0.02174   0.04980   0.05701   0.07751   0.08844
 Alpha virt. eigenvalues --    0.09820   0.10351   0.10904   0.12123   0.13200
 Alpha virt. eigenvalues --    0.13507   0.14979   0.15544   0.16064   0.19001

 Mulliken atomic charges:
              1
     1  H    0.130185
     2  C   -0.390648
     3  C   -0.295288
     4  H    0.110078
     5  H    0.141489
     6  H    0.124432
     7  Si   0.560513
     8  H    0.120340
     9  O   -0.591745
    10  O   -0.332791
    11  H   -0.050046
    12  H    0.313131
    13  C   -0.212678
    14  H    0.129539
    15  H    0.117873
    16  H    0.125614
 Sum of Mulliken atomic charges =   0.00000

 Dipole moment (field-independent basis, Debye):
    X=             -0.3004    Y=             -1.0478    Z=             -0.5827  Tot=              1.2360
 Quadrupole moment (field-independent basis, Debye-Ang):
   XX=            -40.7724   YY=            -50.2138   ZZ=            -42.8056
   XY=             -1.7851   XZ=             -0.2460   YZ=             -1.8193

 Normal termination of Gaussian 09 at Thu Aug  9 23:20:36 2018.
