 Gaussian 09, Revision C.01,
 Gaussian 09:  EM64L-G09RevC.01 23-Sep-2011

 --------------------------------------
 #SP PBE1PBE/Def2TZVP geom=connectivity
 --------------------------------------

 99/5=1,9=1/99;
 --------------
 Structure: 231
 --------------
 Charge =  0 Multiplicity = 1

                         Standard orientation:
 ---------------------------------------------------------------------
 Center     Atomic      Atomic             Coordinates (Angstroms)
 Number     Number       Type             X           Y           Z
 ---------------------------------------------------------------------
      1          1           0       -3.233084   -1.173973   -0.554422
      2          6           0       -2.236919   -0.743965   -0.686324
      3          6           0       -1.623768   -0.326135    0.649546
      4          1           0       -2.346505    0.107575   -1.364692
      5          1           0       -1.618116   -1.490666   -1.190040
      6          1           0       -2.259009    0.415752    1.146009
      7         14           0        0.090485    0.386042    0.521619
      8          1           0       -1.572538   -1.185087    1.327076
      9          8           0        0.160176    1.832103   -0.485800
     10          8           0        1.031258   -0.820310   -0.076483
     11          1           0        0.629180    0.849787    1.826038
     12          1           0       -0.192891    1.770098   -1.373954
     13          6           0        2.424846   -0.713814   -0.250339
     14          1           0        2.803805   -1.678678   -0.591839
     15          1           0        2.927499   -0.456256    0.689748
     16          1           0        2.678445    0.046007   -0.995624
 ---------------------------------------------------------------------

 SCF Done:  E(RPBE1PBE) =  -560.055117353     A.U. after   13 cycles

 The electronic state is 1-A.
 Alpha  occ. eigenvalues --  -66.26696 -19.20568 -19.19487 -10.26657 -10.21850
 Alpha  occ. eigenvalues --  -10.21338  -5.34126  -3.67653  -3.67550  -3.67397
 Alpha  occ. eigenvalues --   -1.04480  -1.00138  -0.78464  -0.70792  -0.64281
 Alpha  occ. eigenvalues --   -0.55504  -0.50577  -0.47084  -0.46814  -0.46025
 Alpha  occ. eigenvalues --   -0.43745  -0.41347  -0.38158  -0.37036  -0.36387
 Alpha  occ. eigenvalues --   -0.34603  -0.31855  -0.30667  -0.30051
 Alpha virt. eigenvalues --    0.02235   0.05107   0.05777   0.07806   0.08877
 Alpha virt. eigenvalues --    0.09920   0.10469   0.11001   0.12163   0.13304
 Alpha virt. eigenvalues --    0.13566   0.15051   0.15657   0.16144   0.19062

 Mulliken atomic charges:
              1
     1  H    0.130179
     2  C   -0.391213
     3  C   -0.297136
     4  H    0.109131
     5  H    0.141679
     6  H    0.123791
     7  Si   0.557362
     8  H    0.119832
     9  O   -0.580215
    10  O   -0.333999
    11  H   -0.052660
    12  H    0.313999
    13  C   -0.212368
    14  H    0.129374
    15  H    0.117798
    16  H    0.124447
 Sum of Mulliken atomic charges =   0.00000

 Dipole moment (field-independent basis, Debye):
    X=             -0.2960    Y=             -0.9473    Z=             -0.6400  Tot=              1.1810
 Quadrupole moment (field-independent basis, Debye-Ang):
   XX=            -40.8531   YY=            -50.0138   ZZ=            -42.8206
   XY=             -1.7551   XZ=             -0.2363   YZ=             -1.7992

 Normal termination of Gaussian 09 at Fri Aug 10 05:17:01 2018.
