 Gaussian 09, Revision C.01,
 Gaussian 09:  EM64L-G09RevC.01 23-Sep-2011

 --------------------------------------
 #SP PBE1PBE/Def2TZVP geom=connectivity
 --------------------------------------

 99/5=1,9=1/99;
 --------------
 Structure: 274
 --------------
 Charge =  0 Multiplicity = 1

                         Standard orientation:
 ---------------------------------------------------------------------
 Center     Atomic      Atomic             Coordinates (Angstroms)
 Number     Number       Type             X           Y           Z
 ---------------------------------------------------------------------
      1          1           0       -3.235283   -1.156426   -0.595843
      2          6           0       -2.238310   -0.723163   -0.709762
      3          6           0       -1.625363   -0.360365    0.642185
      4          1           0       -2.346011    0.155120   -1.353449
      5          1           0       -1.620419   -1.450084   -1.242685
      6          1           0       -2.259695    0.362064    1.167657
      7         14           0        0.090167    0.353458    0.544007
      8          1           0       -1.576030   -1.245921    1.284701
      9          8           0        0.166907    1.910670   -0.451195
     10          8           0        1.029322   -0.829499   -0.101491
     11          1           0        0.628756    0.763523    1.866326
     12          1           0       -0.185663    1.884986   -1.341337
     13          6           0        2.423203   -0.718478   -0.270082
     14          1           0        2.800776   -1.669491   -0.649828
     15          1           0        2.925651   -0.499738    0.679897
     16          1           0        2.678579    0.070230   -0.984094
 ---------------------------------------------------------------------

 SCF Done:  E(RPBE1PBE) =  -560.044946214     A.U. after   13 cycles

 The electronic state is 1-A.
 Alpha  occ. eigenvalues --  -66.27543 -19.20974 -19.18861 -10.26816 -10.21944
 Alpha  occ. eigenvalues --  -10.21681  -5.34869  -3.68403  -3.68294  -3.68129
 Alpha  occ. eigenvalues --   -1.04743  -0.98544  -0.78659  -0.70998  -0.64461
 Alpha  occ. eigenvalues --   -0.55072  -0.49854  -0.47268  -0.46964  -0.46078
 Alpha  occ. eigenvalues --   -0.43883  -0.41621  -0.38194  -0.36776  -0.35960
 Alpha  occ. eigenvalues --   -0.34145  -0.31591  -0.30728  -0.30127
 Alpha virt. eigenvalues --    0.02020   0.04721   0.05547   0.07646   0.08780
 Alpha virt. eigenvalues --    0.09557   0.10149   0.10736   0.12043   0.12981
 Alpha virt. eigenvalues --    0.13431   0.14809   0.15376   0.15934   0.18892

 Mulliken atomic charges:
              1
     1  H    0.130210
     2  C   -0.389545
     3  C   -0.292152
     4  H    0.111907
     5  H    0.141136
     6  H    0.125644
     7  Si   0.565313
     8  H    0.121283
     9  O   -0.611606
    10  O   -0.330512
    11  H   -0.045175
    12  H    0.311084
    13  C   -0.213340
    14  H    0.129877
    15  H    0.118032
    16  H    0.127844
 Sum of Mulliken atomic charges =   0.00000

 Dipole moment (field-independent basis, Debye):
    X=             -0.3078    Y=             -1.2461    Z=             -0.4757  Tot=              1.3688
 Quadrupole moment (field-independent basis, Debye-Ang):
   XX=            -40.6125   YY=            -50.6045   ZZ=            -42.7808
   XY=             -1.8425   XZ=             -0.2637   YZ=             -1.8582

 Normal termination of Gaussian 09 at Fri Aug 10 02:31:15 2018.
