 Gaussian 09, Revision C.01,
 Gaussian 09:  EM64L-G09RevC.01 23-Sep-2011

 --------------------------------------
 #SP PBE1PBE/Def2TZVP geom=connectivity
 --------------------------------------

 99/5=1,9=1/99;
 --------------
 Structure: 225
 --------------
 Charge =  0 Multiplicity = 1

                         Standard orientation:
 ---------------------------------------------------------------------
 Center     Atomic      Atomic             Coordinates (Angstroms)
 Number     Number       Type             X           Y           Z
 ---------------------------------------------------------------------
      1          1           0       -3.232914   -1.176054   -0.548444
      2          6           0       -2.236826   -0.746658   -0.682891
      3          6           0       -1.623650   -0.321038    0.650506
      4          1           0       -2.346593    0.100941   -1.366149
      5          1           0       -1.617940   -1.496153   -1.182338
      6          1           0       -2.258973    0.423599    1.142728
      7         14           0        0.090482    0.390659    0.518357
      8          1           0       -1.572238   -1.176062    1.332972
      9          8           0        0.159731    1.820573   -0.490801
     10          8           0        1.031405   -0.818973   -0.072847
     11          1           0        0.629193    0.861999    1.820045
     12          1           0       -0.193387    1.753395   -1.378558
     13          6           0        2.424964   -0.713262   -0.247410
     14          1           0        2.804051   -1.680019   -0.583369
     15          1           0        2.927640   -0.450211    0.691142
     16          1           0        2.678393    0.042290   -0.997079
 ---------------------------------------------------------------------

 SCF Done:  E(RPBE1PBE) =  -560.056257688     A.U. after   13 cycles

 The electronic state is 1-A.
 Alpha  occ. eigenvalues --  -66.26567 -19.20508 -19.19571 -10.26634 -10.21837
 Alpha  occ. eigenvalues --  -10.21289  -5.34016  -3.67543  -3.67439  -3.67287
 Alpha  occ. eigenvalues --   -1.04448  -1.00374  -0.78437  -0.70762  -0.64257
 Alpha  occ. eigenvalues --   -0.55597  -0.50663  -0.47057  -0.46791  -0.46018
 Alpha  occ. eigenvalues --   -0.43725  -0.41307  -0.38189  -0.37100  -0.36400
 Alpha  occ. eigenvalues --   -0.34703  -0.31877  -0.30648  -0.30021
 Alpha virt. eigenvalues --    0.02253   0.05157   0.05807   0.07828   0.08888
 Alpha virt. eigenvalues --    0.09956   0.10517   0.11043   0.12180   0.13341
 Alpha virt. eigenvalues --    0.13598   0.15077   0.15702   0.16181   0.19086

 Mulliken atomic charges:
              1
     1  H    0.130180
     2  C   -0.391453
     3  C   -0.297934
     4  H    0.108740
     5  H    0.141765
     6  H    0.123520
     7  Si   0.555884
     8  H    0.119630
     9  O   -0.575304
    10  O   -0.334518
    11  H   -0.053748
    12  H    0.314458
    13  C   -0.212226
    14  H    0.129299
    15  H    0.117756
    16  H    0.123952
 Sum of Mulliken atomic charges =   0.00000

 Dipole moment (field-independent basis, Debye):
    X=             -0.2953    Y=             -0.9056    Z=             -0.6644  Tot=              1.1614
 Quadrupole moment (field-independent basis, Debye-Ang):
   XX=            -40.8888   YY=            -49.9305   ZZ=            -42.8249
   XY=             -1.7439   XZ=             -0.2327   YZ=             -1.7925

 Normal termination of Gaussian 09 at Fri Aug 10 04:35:31 2018.
