 Gaussian 09, Revision C.01,
 Gaussian 09:  EM64L-G09RevC.01 23-Sep-2011

 --------------------------------------
 #SP PBE1PBE/Def2TZVP geom=connectivity
 --------------------------------------

 99/5=1,9=1/99;
 --------------
 Structure: 230
 --------------
 Charge =  0 Multiplicity = 1

                         Standard orientation:
 ---------------------------------------------------------------------
 Center     Atomic      Atomic             Coordinates (Angstroms)
 Number     Number       Type             X           Y           Z
 ---------------------------------------------------------------------
      1          1           0       -3.233048   -1.174360   -0.553273
      2          6           0       -2.236900   -0.744463   -0.685661
      3          6           0       -1.623741   -0.325155    0.649743
      4          1           0       -2.346525    0.106332   -1.364957
      5          1           0       -1.618081   -1.491694   -1.188572
      6          1           0       -2.258998    0.417253    1.145405
      7         14           0        0.090486    0.386938    0.521010
      8          1           0       -1.572471   -1.183365    1.328209
      9          8           0        0.160085    1.829829   -0.486681
     10          8           0        1.031290   -0.820036   -0.075790
     11          1           0        0.629187    0.852125    1.824913
     12          1           0       -0.193066    1.766703   -1.375749
     13          6           0        2.424871   -0.713684   -0.249785
     14          1           0        2.803856   -1.678907   -0.590237
     15          1           0        2.927531   -0.455083    0.690013
     16          1           0        2.678433    0.045331   -0.995903
 ---------------------------------------------------------------------

 SCF Done:  E(RPBE1PBE) =  -560.055353100     A.U. after   13 cycles

 The electronic state is 1-A.
 Alpha  occ. eigenvalues --  -66.26669 -19.20556 -19.19512 -10.26652 -10.21847
 Alpha  occ. eigenvalues --  -10.21328  -5.34103  -3.67630  -3.67527  -3.67374
 Alpha  occ. eigenvalues --   -1.04472  -1.00163  -0.78458  -0.70786  -0.64275
 Alpha  occ. eigenvalues --   -0.55513  -0.50587  -0.47078  -0.46809  -0.46023
 Alpha  occ. eigenvalues --   -0.43740  -0.41338  -0.38162  -0.37048  -0.36389
 Alpha  occ. eigenvalues --   -0.34620  -0.31858  -0.30662  -0.30044
 Alpha virt. eigenvalues --    0.02232   0.05116   0.05782   0.07810   0.08875
 Alpha virt. eigenvalues --    0.09927   0.10479   0.11009   0.12166   0.13312
 Alpha virt. eigenvalues --    0.13571   0.15056   0.15661   0.16152   0.19066

 Mulliken atomic charges:
              1
     1  H    0.130178
     2  C   -0.391270
     3  C   -0.297267
     4  H    0.109039
     5  H    0.141696
     6  H    0.123732
     7  Si   0.557071
     8  H    0.119787
     9  O   -0.579430
    10  O   -0.334102
    11  H   -0.052864
    12  H    0.314279
    13  C   -0.212334
    14  H    0.129357
    15  H    0.117789
    16  H    0.124340
 Sum of Mulliken atomic charges =   0.00000

 Dipole moment (field-independent basis, Debye):
    X=             -0.2957    Y=             -0.9387    Z=             -0.6459  Tot=              1.1772
 Quadrupole moment (field-independent basis, Debye-Ang):
   XX=            -40.8620   YY=            -49.9980   ZZ=            -42.8187
   XY=             -1.7525   XZ=             -0.2354   YZ=             -1.7998

 Normal termination of Gaussian 09 at Fri Aug 10 05:10:06 2018.
