 Gaussian 09, Revision C.01,
 Gaussian 09:  EM64L-G09RevC.01 23-Sep-2011

 --------------------------------------
 #SP PBE1PBE/Def2TZVP geom=connectivity
 --------------------------------------

 99/5=1,9=1/99;
 --------------
 Structure: 251
 --------------
 Charge =  0 Multiplicity = 1

                         Standard orientation:
 ---------------------------------------------------------------------
 Center     Atomic      Atomic             Coordinates (Angstroms)
 Number     Number       Type             X           Y           Z
 ---------------------------------------------------------------------
      1          1           0       -3.234040   -1.165939   -0.574064
      2          6           0       -2.237520   -0.734243   -0.697499
      3          6           0       -1.624462   -0.342289    0.646233
      4          1           0       -2.346279    0.130096   -1.359620
      5          1           0       -1.619116   -1.471710   -1.215117
      6          1           0       -2.259306    0.390515    1.156502
      7         14           0        0.090352    0.370919    0.532330
      8          1           0       -1.574065   -1.213979    1.307357
      9          8           0        0.163087    1.868580   -0.469709
     10          8           0        1.030418   -0.824564   -0.088287
     11          1           0        0.628997    0.809432    1.845467
     12          1           0       -0.189761    1.823700   -1.358980
     13          6           0        2.424135   -0.715819   -0.259694
     14          1           0        2.802487   -1.674309   -0.619332
     15          1           0        2.926696   -0.476516    0.685254
     16          1           0        2.678515    0.057819   -0.990355
 ---------------------------------------------------------------------

 SCF Done:  E(RPBE1PBE) =  -560.050836184     A.U. after   13 cycles

 The electronic state is 1-A.
 Alpha  occ. eigenvalues --  -66.27100 -19.20756 -19.19202 -10.26730 -10.21893
 Alpha  occ. eigenvalues --  -10.21498  -5.34476  -3.68006  -3.67902  -3.67743
 Alpha  occ. eigenvalues --   -1.04594  -0.99384  -0.78554  -0.70887  -0.64364
 Alpha  occ. eigenvalues --   -0.55259  -0.50262  -0.47170  -0.46883  -0.46050
 Alpha  occ. eigenvalues --   -0.43809  -0.41478  -0.38136  -0.36846  -0.36275
 Alpha  occ. eigenvalues --   -0.34336  -0.31747  -0.30710  -0.30123
 Alpha virt. eigenvalues --    0.02157   0.04934   0.05674   0.07732   0.08837
 Alpha virt. eigenvalues --    0.09779   0.10311   0.10872   0.12109   0.13159
 Alpha virt. eigenvalues --    0.13492   0.14951   0.15517   0.16039   0.18982

 Mulliken atomic charges:
              1
     1  H    0.130186
     2  C   -0.390444
     3  C   -0.294699
     4  H    0.110413
     5  H    0.141422
     6  H    0.124650
     7  Si   0.561559
     8  H    0.120505
     9  O   -0.595424
    10  O   -0.332369
    11  H   -0.049135
    12  H    0.312613
    13  C   -0.212808
    14  H    0.129602
    15  H    0.117899
    16  H    0.126031
 Sum of Mulliken atomic charges =   0.00000

 Dipole moment (field-independent basis, Debye):
    X=             -0.3011    Y=             -1.0831    Z=             -0.5614  Tot=              1.2566
 Quadrupole moment (field-independent basis, Debye-Ang):
   XX=            -40.7417   YY=            -50.2823   ZZ=            -42.8030
   XY=             -1.7943   XZ=             -0.2486   YZ=             -1.8238

 Normal termination of Gaussian 09 at Thu Aug  9 23:55:02 2018.
