 Gaussian 09, Revision C.01,
 Gaussian 09:  EM64L-G09RevC.01 23-Sep-2011

 --------------------------------------
 #SP PBE1PBE/Def2TZVP geom=connectivity
 --------------------------------------

 99/5=1,9=1/99;
 --------------
 Structure: 276
 --------------
 Charge =  0 Multiplicity = 1

                         Standard orientation:
 ---------------------------------------------------------------------
 Center     Atomic      Atomic             Coordinates (Angstroms)
 Number     Number       Type             X           Y           Z
 ---------------------------------------------------------------------
      1          1           0       -3.235477   -1.155707   -0.597327
      2          6           0       -2.238447   -0.722407   -0.710607
      3          6           0       -1.625482   -0.361618    0.641868
      4          1           0       -2.346025    0.156808   -1.353041
      5          1           0       -1.620637   -1.448643   -1.244556
      6          1           0       -2.259733    0.360139    1.168360
      7         14           0        0.090140    0.352128    0.544744
      8          1           0       -1.576272   -1.248097    1.283119
      9          8           0        0.167639    1.914186   -0.449612
     10          8           0        1.029159   -0.830023   -0.102426
     11          1           0        0.628755    0.760237    1.867659
     12          1           0       -0.186304    1.890238   -1.340746
     13          6           0        2.423058   -0.718936   -0.270830
     14          1           0        2.800518   -1.669453   -0.651927
     15          1           0        2.925514   -0.501617    0.679470
     16          1           0        2.678547    0.070759   -0.983710
 ---------------------------------------------------------------------

 SCF Done:  E(RPBE1PBE) =  -560.044451161     A.U. after   13 cycles

 The electronic state is 1-A.
 Alpha  occ. eigenvalues --  -66.27574 -19.20990 -19.18849 -10.26821 -10.21949
 Alpha  occ. eigenvalues --  -10.21696  -5.34897  -3.68432  -3.68322  -3.68157
 Alpha  occ. eigenvalues --   -1.04754  -0.98448  -0.78668  -0.71006  -0.64469
 Alpha  occ. eigenvalues --   -0.55054  -0.49808  -0.47274  -0.46969  -0.46081
 Alpha  occ. eigenvalues --   -0.43889  -0.41628  -0.38200  -0.36777  -0.35929
 Alpha  occ. eigenvalues --   -0.34134  -0.31576  -0.30728  -0.30122
 Alpha virt. eigenvalues --    0.01996   0.04705   0.05537   0.07640   0.08772
 Alpha virt. eigenvalues --    0.09534   0.10137   0.10727   0.12036   0.12969
 Alpha virt. eigenvalues --    0.13424   0.14797   0.15358   0.15926   0.18883

 Mulliken atomic charges:
              1
     1  H    0.130216
     2  C   -0.389438
     3  C   -0.291991
     4  H    0.111977
     5  H    0.141125
     6  H    0.125733
     7  Si   0.565520
     8  H    0.121356
     9  O   -0.612985
    10  O   -0.330372
    11  H   -0.044894
    12  H    0.311193
    13  C   -0.213373
    14  H    0.129894
    15  H    0.118044
    16  H    0.127996
 Sum of Mulliken atomic charges =   0.00000

 Dipole moment (field-independent basis, Debye):
    X=             -0.3106    Y=             -1.2587    Z=             -0.4708  Tot=              1.3793
 Quadrupole moment (field-independent basis, Debye-Ang):
   XX=            -40.6033   YY=            -50.6295   ZZ=            -42.7792
   XY=             -1.8512   XZ=             -0.2624   YZ=             -1.8645

 Normal termination of Gaussian 09 at Fri Aug 10 02:44:37 2018.
