 Gaussian 09, Revision C.01,
 Gaussian 09:  EM64L-G09RevC.01 23-Sep-2011

 --------------------------------------
 #SP PBE1PBE/Def2TZVP geom=connectivity
 --------------------------------------

 99/5=1,9=1/99;
 --------------
 Structure: 278
 --------------
 Charge =  0 Multiplicity = 1

                         Standard orientation:
 ---------------------------------------------------------------------
 Center     Atomic      Atomic             Coordinates (Angstroms)
 Number     Number       Type             X           Y           Z
 ---------------------------------------------------------------------
      1          1           0       -3.235264   -1.155430   -0.599204
      2          6           0       -2.238273   -0.721823   -0.711645
      3          6           0       -1.625343   -0.363592    0.641526
      4          1           0       -2.345927    0.158622   -1.352380
      5          1           0       -1.620397   -1.446971   -1.246995
      6          1           0       -2.259660    0.357091    1.169409
      7         14           0        0.090215    0.350494    0.545784
      8          1           0       -1.576056   -1.251303    1.281064
      9          8           0        0.166733    1.918335   -0.447877
     10          8           0        1.029342   -0.830322   -0.103664
     11          1           0        0.628791    0.756095    1.869486
     12          1           0       -0.185889    1.895559   -1.339100
     13          6           0        2.423231   -0.718785   -0.271851
     14          1           0        2.800777   -1.668531   -0.654782
     15          1           0        2.925666   -0.503257    0.678869
     16          1           0        2.678651    0.072308   -0.983203
 ---------------------------------------------------------------------

 SCF Done:  E(RPBE1PBE) =  -560.043834606     A.U. after   13 cycles

 The electronic state is 1-A.
 Alpha  occ. eigenvalues --  -66.27616 -19.21014 -19.18811 -10.26833 -10.21952
 Alpha  occ. eigenvalues --  -10.21711  -5.34934  -3.68470  -3.68360  -3.68194
 Alpha  occ. eigenvalues --   -1.04772  -0.98380  -0.78676  -0.71019  -0.64477
 Alpha  occ. eigenvalues --   -0.55044  -0.49773  -0.47285  -0.46980  -0.46081
 Alpha  occ. eigenvalues --   -0.43895  -0.41641  -0.38208  -0.36776  -0.35893
 Alpha  occ. eigenvalues --   -0.34124  -0.31567  -0.30728  -0.30114
 Alpha virt. eigenvalues --    0.01983   0.04684   0.05524   0.07631   0.08766
 Alpha virt. eigenvalues --    0.09509   0.10126   0.10714   0.12029   0.12951
 Alpha virt. eigenvalues --    0.13420   0.14781   0.15350   0.15917   0.18876

 Mulliken atomic charges:
              1
     1  H    0.130212
     2  C   -0.389395
     3  C   -0.291707
     4  H    0.112147
     5  H    0.141079
     6  H    0.125819
     7  Si   0.565840
     8  H    0.121400
     9  O   -0.614404
    10  O   -0.330178
    11  H   -0.044505
    12  H    0.310981
    13  C   -0.213450
    14  H    0.129936
    15  H    0.118075
    16  H    0.128152
 Sum of Mulliken atomic charges =   0.00000

 Dipole moment (field-independent basis, Debye):
    X=             -0.3070    Y=             -1.2757    Z=             -0.4631  Tot=              1.3915
 Quadrupole moment (field-independent basis, Debye-Ang):
   XX=            -40.5895   YY=            -50.6659   ZZ=            -42.7751
   XY=             -1.8490   XZ=             -0.2658   YZ=             -1.8668

 Normal termination of Gaussian 09 at Fri Aug 10 02:57:54 2018.
