 Gaussian 09, Revision C.01,
 Gaussian 09:  EM64L-G09RevC.01 23-Sep-2011

 --------------------------------------
 #SP PBE1PBE/Def2TZVP geom=connectivity
 --------------------------------------

 99/5=1,9=1/99;
 --------------
 Structure: 244
 --------------
 Charge =  0 Multiplicity = 1

                         Standard orientation:
 ---------------------------------------------------------------------
 Center     Atomic      Atomic             Coordinates (Angstroms)
 Number     Number       Type             X           Y           Z
 ---------------------------------------------------------------------
      1          1           0       -3.233694   -1.168663   -0.567406
      2          6           0       -2.237302   -0.737505   -0.693715
      3          6           0       -1.624215   -0.336753    0.647407
      4          1           0       -2.346356    0.122529   -1.361370
      5          1           0       -1.618752   -1.478121   -1.206641
      6          1           0       -2.259204    0.399148    1.153016
      7         14           0        0.090397    0.376163    0.528747
      8          1           0       -1.573521   -1.204160    1.314119
      9          8           0        0.162044    1.855744   -0.475325
     10          8           0        1.030720   -0.823037   -0.084262
     11          1           0        0.629055    0.823255    1.838982
     12          1           0       -0.190879    1.805051   -1.364253
     13          6           0        2.424392   -0.715027   -0.256505
     14          1           0        2.802964   -1.675710   -0.610009
     15          1           0        2.926982   -0.469518    0.686834
     16          1           0        2.678493    0.053963   -0.992152
 ---------------------------------------------------------------------

 SCF Done:  E(RPBE1PBE) =  -560.052425686     A.U. after   13 cycles

 The electronic state is 1-A.
 Alpha  occ. eigenvalues --  -66.26962 -19.20690 -19.19302 -10.26704 -10.21877
 Alpha  occ. eigenvalues --  -10.21442  -5.34355  -3.67884  -3.67780  -3.67624
 Alpha  occ. eigenvalues --   -1.04551  -0.99644  -0.78522  -0.70853  -0.64334
 Alpha  occ. eigenvalues --   -0.55336  -0.50377  -0.47140  -0.46858  -0.46041
 Alpha  occ. eigenvalues --   -0.43786  -0.41434  -0.38132  -0.36902  -0.36331
 Alpha  occ. eigenvalues --   -0.34418  -0.31789  -0.30697  -0.30103
 Alpha virt. eigenvalues --    0.02189   0.04995   0.05710   0.07758   0.08851
 Alpha virt. eigenvalues --    0.09834   0.10366   0.10916   0.12128   0.13212
 Alpha virt. eigenvalues --    0.13514   0.14989   0.15564   0.16075   0.19010

 Mulliken atomic charges:
              1
     1  H    0.130182
     2  C   -0.390714
     3  C   -0.295519
     4  H    0.109963
     5  H    0.141511
     6  H    0.124345
     7  Si   0.560222
     8  H    0.120268
     9  O   -0.590288
    10  O   -0.332934
    11  H   -0.050340
    12  H    0.313100
    13  C   -0.212651
    14  H    0.129519
    15  H    0.117857
    16  H    0.125480
 Sum of Mulliken atomic charges =   0.00000

 Dipole moment (field-independent basis, Debye):
    X=             -0.2993    Y=             -1.0348    Z=             -0.5880  Tot=              1.2272
 Quadrupole moment (field-independent basis, Debye-Ang):
   XX=            -40.7811   YY=            -50.1865   ZZ=            -42.8089
   XY=             -1.7801   XZ=             -0.2440   YZ=             -1.8145

 Normal termination of Gaussian 09 at Thu Aug  9 23:06:47 2018.
