 Gaussian 09, Revision C.01,
 Gaussian 09:  EM64L-G09RevC.01 23-Sep-2011

 --------------------------------------
 #SP PBE1PBE/Def2TZVP geom=connectivity
 --------------------------------------

 99/5=1,9=1/99;
 --------------
 Structure: 260
 --------------
 Charge =  0 Multiplicity = 1

                         Standard orientation:
 ---------------------------------------------------------------------
 Center     Atomic      Atomic             Coordinates (Angstroms)
 Number     Number       Type             X           Y           Z
 ---------------------------------------------------------------------
      1          1           0       -3.234596   -1.162148   -0.582656
      2          6           0       -2.237883   -0.729849   -0.702362
      3          6           0       -1.624861   -0.349311    0.644665
      4          1           0       -2.346193    0.140000   -1.357301
      5          1           0       -1.619703   -1.463247   -1.225994
      6          1           0       -2.259481    0.379491    1.160907
      7         14           0        0.090259    0.364118    0.536929
      8          1           0       -1.574915   -1.226478    1.298539
      9          8           0        0.164819    1.885051   -0.462471
     10          8           0        1.029929   -0.826556   -0.093454
     11          1           0        0.628891    0.791497    1.853737
     12          1           0       -0.187917    1.847696   -1.352134
     13          6           0        2.423715   -0.716961   -0.263754
     14          1           0        2.801730   -1.672588   -0.631281
     15          1           0        2.926236   -0.485715    0.683219
     16          1           0        2.678517    0.062610   -0.987933
 ---------------------------------------------------------------------

 SCF Done:  E(RPBE1PBE) =  -560.048645866     A.U. after   13 cycles

 The electronic state is 1-A.
 Alpha  occ. eigenvalues --  -66.27276 -19.20841 -19.19071 -10.26763 -10.21913
 Alpha  occ. eigenvalues --  -10.21570  -5.34631  -3.68162  -3.68056  -3.67895
 Alpha  occ. eigenvalues --   -1.04650  -0.99052  -0.78595  -0.70930  -0.64402
 Alpha  occ. eigenvalues --   -0.55175  -0.50106  -0.47208  -0.46915  -0.46062
 Alpha  occ. eigenvalues --   -0.43838  -0.41535  -0.38153  -0.36800  -0.36172
 Alpha  occ. eigenvalues --   -0.34247  -0.31686  -0.30722  -0.30137
 Alpha virt. eigenvalues --    0.02110   0.04853   0.05626   0.07699   0.08816
 Alpha virt. eigenvalues --    0.09700   0.10243   0.10818   0.12084   0.13090
 Alpha virt. eigenvalues --    0.13467   0.14899   0.15458   0.15996   0.18946

 Mulliken atomic charges:
              1
     1  H    0.130195
     2  C   -0.390093
     3  C   -0.293678
     4  H    0.110999
     5  H    0.141311
     6  H    0.125042
     7  Si   0.563128
     8  H    0.120816
     9  O   -0.601874
    10  O   -0.331648
    11  H   -0.047588
    12  H    0.312000
    13  C   -0.213007
    14  H    0.129707
    15  H    0.117949
    16  H    0.126739
 Sum of Mulliken atomic charges =   0.00000

 Dipole moment (field-independent basis, Debye):
    X=             -0.3042    Y=             -1.1462    Z=             -0.5276  Tot=              1.2979
 Quadrupole moment (field-independent basis, Debye-Ang):
   XX=            -40.6915   YY=            -50.4069   ZZ=            -42.7949
   XY=             -1.8137   XZ=             -0.2549   YZ=             -1.8366

 Normal termination of Gaussian 09 at Fri Aug 10 00:56:49 2018.
