 Gaussian 09, Revision C.01,
 Gaussian 09:  EM64L-G09RevC.01 23-Sep-2011

 --------------------------------------
 #SP PBE1PBE/Def2TZVP geom=connectivity
 --------------------------------------

 99/5=1,9=1/99;
 --------------
 Structure: 293
 --------------
 Charge =  0 Multiplicity = 1

                         Standard orientation:
 ---------------------------------------------------------------------
 Center     Atomic      Atomic             Coordinates (Angstroms)
 Number     Number       Type             X           Y           Z
 ---------------------------------------------------------------------
      1          1           0       -3.236151   -1.149111   -0.612642
      2          6           0       -2.238839   -0.714736   -0.719120
      3          6           0       -1.625994   -0.374806    0.638802
      4          1           0       -2.345743    0.174158   -1.348209
      5          1           0       -1.621325   -1.433178   -1.263847
      6          1           0       -2.259950    0.339281    1.175999
      7         14           0        0.090070    0.339315    0.552888
      8          1           0       -1.577462   -1.270910    1.266584
      9          8           0        0.169495    1.945115   -0.436246
     10          8           0        1.028554   -0.833468   -0.111864
     11          1           0        0.628600    0.727050    1.881951
     12          1           0       -0.182857    1.934421   -1.326781
     13          6           0        2.422559   -0.720670   -0.278240
     14          1           0        2.799555   -1.665537   -0.673580
     15          1           0        2.924910   -0.518046    0.675357
     16          1           0        2.678686    0.079565   -0.979034
 ---------------------------------------------------------------------

 SCF Done:  E(RPBE1PBE) =  -560.039554828     A.U. after   14 cycles

 The electronic state is 1-A.
 Alpha  occ. eigenvalues --  -66.27885 -19.21153 -19.18577 -10.26888 -10.21987
 Alpha  occ. eigenvalues --  -10.21828  -5.35178  -3.68718  -3.68603  -3.68433
 Alpha  occ. eigenvalues --   -1.04874  -0.97888  -0.78744  -0.71091  -0.64542
 Alpha  occ. eigenvalues --   -0.54984  -0.49510  -0.47346  -0.47030  -0.46096
 Alpha  occ. eigenvalues --   -0.43941  -0.41727  -0.38268  -0.36795  -0.35644
 Alpha  occ. eigenvalues --   -0.34072  -0.31494  -0.30715  -0.30032
 Alpha virt. eigenvalues --    0.01860   0.04538   0.05437   0.07574   0.08717
 Alpha virt. eigenvalues --    0.09342   0.10044   0.10634   0.11986   0.12842
 Alpha virt. eigenvalues --    0.13385   0.14676   0.15280   0.15859   0.18820

 Mulliken atomic charges:
              1
     1  H    0.130237
     2  C   -0.388815
     3  C   -0.290243
     4  H    0.113124
     5  H    0.140909
     6  H    0.126454
     7  Si   0.567628
     8  H    0.121901
     9  O   -0.623866
    10  O   -0.328975
    11  H   -0.042027
    12  H    0.309885
    13  C   -0.213805
    14  H    0.130119
    15  H    0.118166
    16  H    0.129307
 Sum of Mulliken atomic charges =   0.00000

 Dipole moment (field-independent basis, Debye):
    X=             -0.3120    Y=             -1.3837    Z=             -0.4101  Tot=              1.4765
 Quadrupole moment (field-independent basis, Debye-Ang):
   XX=            -40.5053   YY=            -50.8781   ZZ=            -42.7618
   XY=             -1.8821   XZ=             -0.2759   YZ=             -1.8905

 Normal termination of Gaussian 09 at Fri Aug 10 04:41:51 2018.
