 Gaussian 09, Revision C.01,
 Gaussian 09:  EM64L-G09RevC.01 23-Sep-2011

 --------------------------------------
 #SP PBE1PBE/Def2TZVP geom=connectivity
 --------------------------------------

 99/5=1,9=1/99;
 --------------
 Structure: 265
 --------------
 Charge =  0 Multiplicity = 1

                         Standard orientation:
 ---------------------------------------------------------------------
 Center     Atomic      Atomic             Coordinates (Angstroms)
 Number     Number       Type             X           Y           Z
 ---------------------------------------------------------------------
      1          1           0       -3.234744   -1.160471   -0.587081
      2          6           0       -2.237966   -0.727793   -0.704856
      3          6           0       -1.624963   -0.353194    0.643842
      4          1           0       -2.346122    0.144908   -1.356016
      5          1           0       -1.619859   -1.458994   -1.231637
      6          1           0       -2.259510    0.373446    1.163213
      7         14           0        0.090261    0.360460    0.539296
      8          1           0       -1.575171   -1.233201    1.293903
      9          8           0        0.165215    1.894161   -0.458439
     10          8           0        1.029801   -0.827594   -0.096204
     11          1           0        0.628883    0.782041    1.857976
     12          1           0       -0.187550    1.860613   -1.349266
     13          6           0        2.423612   -0.717452   -0.265953
     14          1           0        2.801515   -1.671525   -0.637608
     15          1           0        2.926114   -0.490390    0.682042
     16          1           0        2.678558    0.065223   -0.986726
 ---------------------------------------------------------------------

 SCF Done:  E(RPBE1PBE) =  -560.047400989     A.U. after   13 cycles

 The electronic state is 1-A.
 Alpha  occ. eigenvalues --  -66.27368 -19.20888 -19.19009 -10.26782 -10.21923
 Alpha  occ. eigenvalues --  -10.21608  -5.34713  -3.68245  -3.68138  -3.67976
 Alpha  occ. eigenvalues --   -1.04682  -0.98853  -0.78616  -0.70954  -0.64421
 Alpha  occ. eigenvalues --   -0.55130  -0.50012  -0.47229  -0.46933  -0.46067
 Alpha  occ. eigenvalues --   -0.43853  -0.41562  -0.38164  -0.36785  -0.36103
 Alpha  occ. eigenvalues --   -0.34206  -0.31652  -0.30726  -0.30137
 Alpha virt. eigenvalues --    0.02075   0.04808   0.05599   0.07681   0.08802
 Alpha virt. eigenvalues --    0.09651   0.10210   0.10789   0.12069   0.13052
 Alpha virt. eigenvalues --    0.13453   0.14869   0.15423   0.15974   0.18927

 Mulliken atomic charges:
              1
     1  H    0.130198
     2  C   -0.389909
     3  C   -0.293116
     4  H    0.111299
     5  H    0.141246
     6  H    0.125252
     7  Si   0.563901
     8  H    0.120970
     9  O   -0.605424
    10  O   -0.331251
    11  H   -0.046755
    12  H    0.311841
    13  C   -0.213124
    14  H    0.129769
    15  H    0.117987
    16  H    0.127116
 Sum of Mulliken atomic charges =   0.00000

 Dipole moment (field-independent basis, Debye):
    X=             -0.3045    Y=             -1.1809    Z=             -0.5110  Tot=              1.3223
 Quadrupole moment (field-independent basis, Debye-Ang):
   XX=            -40.6648   YY=            -50.4776   ZZ=            -42.7881
   XY=             -1.8227   XZ=             -0.2577   YZ=             -1.8459

 Normal termination of Gaussian 09 at Fri Aug 10 01:31:10 2018.
