 Gaussian 09, Revision C.01,
 Gaussian 09:  EM64L-G09RevC.01 23-Sep-2011

 --------------------------------------
 #SP PBE1PBE/Def2TZVP geom=connectivity
 --------------------------------------

 99/5=1,9=1/99;
 -------------
 Structure: 29
 -------------
 Charge =  0 Multiplicity = 1

                         Standard orientation:
 ---------------------------------------------------------------------
 Center     Atomic      Atomic             Coordinates (Angstroms)
 Number     Number       Type             X           Y           Z
 ---------------------------------------------------------------------
      1          1           0       -3.225213   -1.243893   -0.309496
      2          6           0       -2.231942   -0.849577   -0.538792
      3          6           0       -1.618103   -0.137499    0.665880
      4          1           0       -2.348211   -0.173920   -1.391601
      5          1           0       -1.609910   -1.687517   -0.863049
      6          1           0       -2.256561    0.694026    0.984219
      7         14           0        0.091572    0.536359    0.374071
      8          1           0       -1.560146   -0.820872    1.519760
      9          8           0        0.136451    1.447263   -0.634544
     10          8           0        1.038078   -0.768973    0.060537
     11          1           0        0.630608    1.285665    1.538005
     12          1           0       -0.218358    1.184331   -1.484423
     13          6           0        2.430588   -0.697188   -0.137995
     14          1           0        2.814466   -1.712254   -0.254062
     15          1           0        2.933941   -0.231242    0.717745
     16          1           0        2.677883   -0.124087   -1.036600
 ---------------------------------------------------------------------

 SCF Done:  E(RPBE1PBE) =  -559.976579851     A.U. after   12 cycles

 The electronic state is 1-A.
 Alpha  occ. eigenvalues --  -66.20886 -19.21250 -19.18686 -10.26009 -10.21510
 Alpha  occ. eigenvalues --  -10.19642  -5.30100  -3.63864  -3.63328  -3.63164
 Alpha  occ. eigenvalues --   -1.10937  -1.02593  -0.77637  -0.69926  -0.63884
 Alpha  occ. eigenvalues --   -0.61294  -0.51495  -0.47335  -0.46626  -0.45955
 Alpha  occ. eigenvalues --   -0.43551  -0.42733  -0.41258  -0.39483  -0.36321
 Alpha  occ. eigenvalues --   -0.35651  -0.31116  -0.29671  -0.28449
 Alpha virt. eigenvalues --    0.01822   0.06177   0.06623   0.08476   0.09133
 Alpha virt. eigenvalues --    0.10534   0.11398   0.12068   0.12558   0.13509
 Alpha virt. eigenvalues --    0.15264   0.15630   0.17041   0.17662   0.19776

 Mulliken atomic charges:
              1
     1  H    0.130775
     2  C   -0.400756
     3  C   -0.337269
     4  H    0.097049
     5  H    0.145049
     6  H    0.115007
     7  Si   0.455302
     8  H    0.113393
     9  O   -0.336684
    10  O   -0.361253
    11  H   -0.096663
    12  H    0.334194
    13  C   -0.211449
    14  H    0.127693
    15  H    0.117658
    16  H    0.107953
 Sum of Mulliken atomic charges =   0.00000

 Dipole moment (field-independent basis, Debye):
    X=             -0.2543    Y=              0.0818    Z=             -1.6712  Tot=              1.6924
 Quadrupole moment (field-independent basis, Debye-Ang):
   XX=            -41.9003   YY=            -47.8852   ZZ=            -42.8316
   XY=             -1.4411   XZ=             -0.1429   YZ=             -1.8327

 Normal termination of Gaussian 09 at Fri Aug 10 00:58:02 2018.
