 Gaussian 09, Revision C.01,
 Gaussian 09:  EM64L-G09RevC.01 23-Sep-2011

 --------------------------------------
 #SP PBE1PBE/Def2TZVP geom=connectivity
 --------------------------------------

 99/5=1,9=1/99;
 --------------
 Structure: 252
 --------------
 Charge =  0 Multiplicity = 1

                         Standard orientation:
 ---------------------------------------------------------------------
 Center     Atomic      Atomic             Coordinates (Angstroms)
 Number     Number       Type             X           Y           Z
 ---------------------------------------------------------------------
      1          1           0       -3.234076   -1.165526   -0.575192
      2          6           0       -2.237540   -0.733728   -0.698139
      3          6           0       -1.624487   -0.343269    0.646031
      4          1           0       -2.346261    0.131341   -1.359312
      5          1           0       -1.619153   -1.470647   -1.216558
      6          1           0       -2.259314    0.388996    1.157095
      7         14           0        0.090352    0.370006    0.532933
      8          1           0       -1.574128   -1.215686    1.306199
      9          8           0        0.163182    1.870862   -0.468723
     10          8           0        1.030386   -0.824826   -0.088981
     11          1           0        0.628994    0.807059    1.846558
     12          1           0       -0.189654    1.826969   -1.358047
     13          6           0        2.424110   -0.715941   -0.260250
     14          1           0        2.802435   -1.674048   -0.620934
     15          1           0        2.926666   -0.477692    0.684967
     16          1           0        2.678526    0.058490   -0.990058
 ---------------------------------------------------------------------

 SCF Done:  E(RPBE1PBE) =  -560.050547093     A.U. after   13 cycles

 The electronic state is 1-A.
 Alpha  occ. eigenvalues --  -66.27124 -19.20768 -19.19185 -10.26735 -10.21895
 Alpha  occ. eigenvalues --  -10.21508  -5.34497  -3.68028  -3.67923  -3.67764
 Alpha  occ. eigenvalues --   -1.04602  -0.99339  -0.78559  -0.70893  -0.64369
 Alpha  occ. eigenvalues --   -0.55247  -0.50241  -0.47175  -0.46888  -0.46052
 Alpha  occ. eigenvalues --   -0.43813  -0.41486  -0.38138  -0.36838  -0.36263
 Alpha  occ. eigenvalues --   -0.34323  -0.31739  -0.30712  -0.30125
 Alpha virt. eigenvalues --    0.02151   0.04924   0.05667   0.07728   0.08834
 Alpha virt. eigenvalues --    0.09769   0.10302   0.10864   0.12105   0.13150
 Alpha virt. eigenvalues --    0.13489   0.14944   0.15509   0.16033   0.18977

 Mulliken atomic charges:
              1
     1  H    0.130187
     2  C   -0.390396
     3  C   -0.294557
     4  H    0.110491
     5  H    0.141405
     6  H    0.124704
     7  Si   0.561782
     8  H    0.120545
     9  O   -0.596308
    10  O   -0.332270
    11  H   -0.048926
    12  H    0.312527
    13  C   -0.212838
    14  H    0.129617
    15  H    0.117908
    16  H    0.126128
 Sum of Mulliken atomic charges =   0.00000

 Dipole moment (field-independent basis, Debye):
    X=             -0.3013    Y=             -1.0918    Z=             -0.5569  Tot=              1.2621
 Quadrupole moment (field-independent basis, Debye-Ang):
   XX=            -40.7346   YY=            -50.2996   ZZ=            -42.8021
   XY=             -1.7966   XZ=             -0.2494   YZ=             -1.8254

 Normal termination of Gaussian 09 at Fri Aug 10 00:01:52 2018.
