 Gaussian 09, Revision C.01,
 Gaussian 09:  EM64L-G09RevC.01 23-Sep-2011

 --------------------------------------
 #SP PBE1PBE/Def2TZVP geom=connectivity
 --------------------------------------

 99/5=1,9=1/99;
 --------------
 Structure: 256
 --------------
 Charge =  0 Multiplicity = 1

                         Standard orientation:
 ---------------------------------------------------------------------
 Center     Atomic      Atomic             Coordinates (Angstroms)
 Number     Number       Type             X           Y           Z
 ---------------------------------------------------------------------
      1          1           0       -3.234184   -1.164257   -0.578593
      2          6           0       -2.237600   -0.732151   -0.700064
      3          6           0       -1.624560   -0.346233    0.645423
      4          1           0       -2.346208    0.135126   -1.358355
      5          1           0       -1.619267   -1.467402   -1.220910
      6          1           0       -2.259333    0.384388    1.158899
      7         14           0        0.090354    0.367243    0.534768
      8          1           0       -1.574314   -1.220849    1.302683
      9          8           0        0.163470    1.877728   -0.465649
     10          8           0        1.030294   -0.825605   -0.091087
     11          1           0        0.628990    0.799865    1.849862
     12          1           0       -0.189408    1.836717   -1.356119
     13          6           0        2.424035   -0.716289   -0.261938
     14          1           0        2.802278   -1.673228   -0.625798
     15          1           0        2.926578   -0.481240    0.684087
     16          1           0        2.678556    0.060543   -0.989153
 ---------------------------------------------------------------------

 SCF Done:  E(RPBE1PBE) =  -560.049664572     A.U. after   13 cycles

 The electronic state is 1-A.
 Alpha  occ. eigenvalues --  -66.27195 -19.20804 -19.19140 -10.26749 -10.21903
 Alpha  occ. eigenvalues --  -10.21536  -5.34559  -3.68090  -3.67985  -3.67825
 Alpha  occ. eigenvalues --   -1.04625  -0.99181  -0.78575  -0.70911  -0.64383
 Alpha  occ. eigenvalues --   -0.55205  -0.50171  -0.47191  -0.46901  -0.46055
 Alpha  occ. eigenvalues --   -0.43824  -0.41507  -0.38143  -0.36816  -0.36221
 Alpha  occ. eigenvalues --   -0.34284  -0.31714  -0.30717  -0.30131
 Alpha virt. eigenvalues --    0.02126   0.04891   0.05648   0.07714   0.08823
 Alpha virt. eigenvalues --    0.09736   0.10275   0.10842   0.12094   0.13122
 Alpha virt. eigenvalues --    0.13477   0.14923   0.15480   0.16015   0.18962

 Mulliken atomic charges:
              1
     1  H    0.130188
     2  C   -0.390260
     3  C   -0.294113
     4  H    0.110712
     5  H    0.141356
     6  H    0.124860
     7  Si   0.562428
     8  H    0.120660
     9  O   -0.599107
    10  O   -0.331971
    11  H   -0.048290
    12  H    0.312450
    13  C   -0.212923
    14  H    0.129663
    15  H    0.117935
    16  H    0.126411
 Sum of Mulliken atomic charges =   0.00000

 Dipole moment (field-independent basis, Debye):
    X=             -0.3015    Y=             -1.1175    Z=             -0.5443  Tot=              1.2791
 Quadrupole moment (field-independent basis, Debye-Ang):
   XX=            -40.7149   YY=            -50.3523   ZZ=            -42.7964
   XY=             -1.8032   XZ=             -0.2514   YZ=             -1.8326

 Normal termination of Gaussian 09 at Fri Aug 10 00:29:25 2018.
