 Gaussian 09, Revision C.01,
 Gaussian 09:  EM64L-G09RevC.01 23-Sep-2011

 --------------------------------------
 #SP PBE1PBE/Def2TZVP geom=connectivity
 --------------------------------------

 99/5=1,9=1/99;
 --------------
 Structure: 236
 --------------
 Charge =  0 Multiplicity = 1

                         Standard orientation:
 ---------------------------------------------------------------------
 Center     Atomic      Atomic             Coordinates (Angstroms)
 Number     Number       Type             X           Y           Z
 ---------------------------------------------------------------------
      1          1           0       -3.233220   -1.172283   -0.559179
      2          6           0       -2.236994   -0.741797   -0.689044
      3          6           0       -1.623861   -0.330211    0.648772
      4          1           0       -2.346437    0.112878   -1.363482
      5          1           0       -1.618259   -1.486244   -1.196168
      6          1           0       -2.259034    0.409458    1.148618
      7         14           0        0.090488    0.382332    0.524220
      8          1           0       -1.572774   -1.192286    1.322334
      9          8           0        0.160535    1.841331   -0.481695
     10          8           0        1.031142   -0.821367   -0.079392
     11          1           0        0.629173    0.839986    1.830793
     12          1           0       -0.192564    1.783335   -1.371132
     13          6           0        2.424752   -0.714245   -0.252682
     14          1           0        2.803607   -1.677571   -0.598611
     15          1           0        2.927387   -0.461090    0.688609
     16          1           0        2.678486    0.048974   -0.994441
 ---------------------------------------------------------------------

 SCF Done:  E(RPBE1PBE) =  -560.054141765     A.U. after   13 cycles

 The electronic state is 1-A.
 Alpha  occ. eigenvalues --  -66.26796 -19.20616 -19.19427 -10.26676 -10.21860
 Alpha  occ. eigenvalues --  -10.21377  -5.34212  -3.67740  -3.67637  -3.67482
 Alpha  occ. eigenvalues --   -1.04507  -0.99929  -0.78486  -0.70816  -0.64300
 Alpha  occ. eigenvalues --   -0.55427  -0.50497  -0.47106  -0.46831  -0.46030
 Alpha  occ. eigenvalues --   -0.43760  -0.41378  -0.38142  -0.36982  -0.36371
 Alpha  occ. eigenvalues --   -0.34527  -0.31832  -0.30680  -0.30072
 Alpha virt. eigenvalues --    0.02212   0.05066   0.05752   0.07788   0.08864
 Alpha virt. eigenvalues --    0.09888   0.10431   0.10968   0.12149   0.13271
 Alpha virt. eigenvalues --    0.13543   0.15028   0.15616   0.16117   0.19041

 Mulliken atomic charges:
              1
     1  H    0.130179
     2  C   -0.391031
     3  C   -0.296489
     4  H    0.109430
     5  H    0.141611
     6  H    0.124003
     7  Si   0.558467
     8  H    0.119989
     9  O   -0.584228
    10  O   -0.333589
    11  H   -0.051785
    12  H    0.313825
    13  C   -0.212478
    14  H    0.129433
    15  H    0.117831
    16  H    0.124833
 Sum of Mulliken atomic charges =   0.00000

 Dipole moment (field-independent basis, Debye):
    X=             -0.2964    Y=             -0.9807    Z=             -0.6218  Tot=              1.1985
 Quadrupole moment (field-independent basis, Debye-Ang):
   XX=            -40.8263   YY=            -50.0819   ZZ=            -42.8143
   XY=             -1.7638   XZ=             -0.2390   YZ=             -1.8069

 Normal termination of Gaussian 09 at Fri Aug 10 05:51:18 2018.
