 Gaussian 09, Revision C.01,
 Gaussian 09:  EM64L-G09RevC.01 23-Sep-2011

 --------------------------------------
 #SP PBE1PBE/Def2TZVP geom=connectivity
 --------------------------------------

 99/5=1,9=1/99;
 --------------
 Structure: 253
 --------------
 Charge =  0 Multiplicity = 1

                         Standard orientation:
 ---------------------------------------------------------------------
 Center     Atomic      Atomic             Coordinates (Angstroms)
 Number     Number       Type             X           Y           Z
 ---------------------------------------------------------------------
      1          1           0       -3.234244   -1.164870   -0.576145
      2          6           0       -2.237661   -0.733064   -0.698677
      3          6           0       -1.624610   -0.343863    0.645858
      4          1           0       -2.346273    0.132603   -1.359084
      5          1           0       -1.619332   -1.469585   -1.217732
      6          1           0       -2.259378    0.388011    1.157554
      7         14           0        0.090305    0.369338    0.533449
      8          1           0       -1.574359   -1.216872    1.305252
      9          8           0        0.163755    1.872266   -0.468052
     10          8           0        1.030238   -0.825036   -0.089500
     11          1           0        0.628951    0.805169    1.847478
     12          1           0       -0.189059    1.829199   -1.357426
     13          6           0        2.423978   -0.716139   -0.260628
     14          1           0        2.802217   -1.673964   -0.622153
     15          1           0        2.926528   -0.478781    0.684816
     16          1           0        2.678494    0.058915   -0.989740
 ---------------------------------------------------------------------

 SCF Done:  E(RPBE1PBE) =  -560.050348269     A.U. after   13 cycles

 The electronic state is 1-A.
 Alpha  occ. eigenvalues --  -66.27141 -19.20775 -19.19172 -10.26737 -10.21897
 Alpha  occ. eigenvalues --  -10.21515  -5.34512  -3.68042  -3.67937  -3.67778
 Alpha  occ. eigenvalues --   -1.04606  -0.99308  -0.78563  -0.70896  -0.64372
 Alpha  occ. eigenvalues --   -0.55239  -0.50227  -0.47178  -0.46890  -0.46053
 Alpha  occ. eigenvalues --   -0.43816  -0.41492  -0.38139  -0.36833  -0.36254
 Alpha  occ. eigenvalues --   -0.34313  -0.31733  -0.30713  -0.30127
 Alpha virt. eigenvalues --    0.02147   0.04916   0.05663   0.07725   0.08832
 Alpha virt. eigenvalues --    0.09763   0.10295   0.10859   0.12104   0.13143
 Alpha virt. eigenvalues --    0.13486   0.14940   0.15502   0.16029   0.18974

 Mulliken atomic charges:
              1
     1  H    0.130189
     2  C   -0.390363
     3  C   -0.294462
     4  H    0.110550
     5  H    0.141399
     6  H    0.124738
     7  Si   0.561933
     8  H    0.120581
     9  O   -0.596931
    10  O   -0.332207
    11  H   -0.048775
    12  H    0.312475
    13  C   -0.212847
    14  H    0.129622
    15  H    0.117905
    16  H    0.126192
 Sum of Mulliken atomic charges =   0.00000

 Dipole moment (field-independent basis, Debye):
    X=             -0.3024    Y=             -1.0972    Z=             -0.5534  Tot=              1.2655
 Quadrupole moment (field-independent basis, Debye-Ang):
   XX=            -40.7309   YY=            -50.3098   ZZ=            -42.8010
   XY=             -1.7992   XZ=             -0.2502   YZ=             -1.8267

 Normal termination of Gaussian 09 at Fri Aug 10 00:08:46 2018.
