 Gaussian 09, Revision C.01,
 Gaussian 09:  EM64L-G09RevC.01 23-Sep-2011

 --------------------------------------
 #SP PBE1PBE/Def2TZVP geom=connectivity
 --------------------------------------

 99/5=1,9=1/99;
 --------------
 Structure: 255
 --------------
 Charge =  0 Multiplicity = 1

                         Standard orientation:
 ---------------------------------------------------------------------
 Center     Atomic      Atomic             Coordinates (Angstroms)
 Number     Number       Type             X           Y           Z
 ---------------------------------------------------------------------
      1          1           0       -3.234286   -1.164112   -0.578322
      2          6           0       -2.237679   -0.732092   -0.699906
      3          6           0       -1.624632   -0.345821    0.645476
      4          1           0       -2.346238    0.135004   -1.358446
      5          1           0       -1.619378   -1.467521   -1.220538
      6          1           0       -2.259373    0.384978    1.158738
      7         14           0        0.090320    0.367537    0.534634
      8          1           0       -1.574435   -1.220253    1.302986
      9          8           0        0.163925    1.876822   -0.466136
     10          8           0        1.030205   -0.825537   -0.090874
     11          1           0        0.628965    0.800505    1.849609
     12          1           0       -0.189788    1.835296   -1.355495
     13          6           0        2.423953   -0.716339   -0.261743
     14          1           0        2.802151   -1.673401   -0.625327
     15          1           0        2.926499   -0.481047    0.684219
     16          1           0        2.678520    0.060272   -0.989177
 ---------------------------------------------------------------------

 SCF Done:  E(RPBE1PBE) =  -560.049764766     A.U. after   13 cycles

 The electronic state is 1-A.
 Alpha  occ. eigenvalues --  -66.27188 -19.20799 -19.19141 -10.26746 -10.21904
 Alpha  occ. eigenvalues --  -10.21535  -5.34553  -3.68084  -3.67979  -3.67819
 Alpha  occ. eigenvalues --   -1.04621  -0.99213  -0.78575  -0.70908  -0.64383
 Alpha  occ. eigenvalues --   -0.55212  -0.50181  -0.47189  -0.46899  -0.46057
 Alpha  occ. eigenvalues --   -0.43825  -0.41507  -0.38145  -0.36820  -0.36228
 Alpha  occ. eigenvalues --   -0.34289  -0.31716  -0.30717  -0.30132
 Alpha virt. eigenvalues --    0.02132   0.04894   0.05650   0.07716   0.08826
 Alpha virt. eigenvalues --    0.09740   0.10276   0.10844   0.12095   0.13125
 Alpha virt. eigenvalues --    0.13478   0.14926   0.15487   0.16017   0.18965

 Mulliken atomic charges:
              1
     1  H    0.130196
     2  C   -0.390260
     3  C   -0.294209
     4  H    0.110681
     5  H    0.141378
     6  H    0.124855
     7  Si   0.562287
     8  H    0.120666
     9  O   -0.598623
    10  O   -0.332007
    11  H   -0.048365
    12  H    0.312334
    13  C   -0.212910
    14  H    0.129652
    15  H    0.117922
    16  H    0.126402
 Sum of Mulliken atomic charges =   0.00000

 Dipole moment (field-independent basis, Debye):
    X=             -0.3039    Y=             -1.1151    Z=             -0.5439  Tot=              1.2773
 Quadrupole moment (field-independent basis, Debye-Ang):
   XX=            -40.7155   YY=            -50.3462   ZZ=            -42.8007
   XY=             -1.8056   XZ=             -0.2495   YZ=             -1.8279

 Normal termination of Gaussian 09 at Fri Aug 10 00:22:36 2018.
