 Gaussian 09, Revision C.01,
 Gaussian 09:  EM64L-G09RevC.01 23-Sep-2011

 --------------------------------------
 #SP PBE1PBE/Def2TZVP geom=connectivity
 --------------------------------------

 99/5=1,9=1/99;
 --------------
 Structure: 261
 --------------
 Charge =  0 Multiplicity = 1

                         Standard orientation:
 ---------------------------------------------------------------------
 Center     Atomic      Atomic             Coordinates (Angstroms)
 Number     Number       Type             X           Y           Z
 ---------------------------------------------------------------------
      1          1           0       -3.234634   -1.161736   -0.583757
      2          6           0       -2.237904   -0.729343   -0.702984
      3          6           0       -1.624887   -0.350275    0.644459
      4          1           0       -2.346175    0.141214   -1.356988
      5          1           0       -1.619742   -1.462198   -1.227397
      6          1           0       -2.259489    0.377993    1.161477
      7         14           0        0.090259    0.363210    0.537515
      8          1           0       -1.574980   -1.228148    1.297390
      9          8           0        0.164918    1.887323   -0.461493
     10          8           0        1.029897   -0.826818   -0.094136
     11          1           0        0.628888    0.789153    1.854790
     12          1           0       -0.187807    1.850938   -1.351200
     13          6           0        2.423689   -0.717088   -0.264299
     14          1           0        2.801676   -1.672332   -0.632849
     15          1           0        2.926204   -0.486878    0.682930
     16          1           0        2.678527    0.063253   -0.987635
 ---------------------------------------------------------------------

 SCF Done:  E(RPBE1PBE) =  -560.048337970     A.U. after   13 cycles

 The electronic state is 1-A.
 Alpha  occ. eigenvalues --  -66.27299 -19.20853 -19.19053 -10.26768 -10.21915
 Alpha  occ. eigenvalues --  -10.21580  -5.34651  -3.68183  -3.68077  -3.67916
 Alpha  occ. eigenvalues --   -1.04658  -0.99008  -0.78601  -0.70936  -0.64407
 Alpha  occ. eigenvalues --   -0.55164  -0.50085  -0.47214  -0.46920  -0.46063
 Alpha  occ. eigenvalues --   -0.43842  -0.41542  -0.38156  -0.36796  -0.36156
 Alpha  occ. eigenvalues --   -0.34236  -0.31678  -0.30724  -0.30138
 Alpha virt. eigenvalues --    0.02103   0.04842   0.05619   0.07694   0.08814
 Alpha virt. eigenvalues --    0.09688   0.10235   0.10810   0.12080   0.13080
 Alpha virt. eigenvalues --    0.13464   0.14892   0.15450   0.15990   0.18942

 Mulliken atomic charges:
              1
     1  H    0.130196
     2  C   -0.390045
     3  C   -0.293542
     4  H    0.111077
     5  H    0.141295
     6  H    0.125096
     7  Si   0.563327
     8  H    0.120856
     9  O   -0.602725
    10  O   -0.331549
    11  H   -0.047381
    12  H    0.311916
    13  C   -0.213038
    14  H    0.129723
    15  H    0.117959
    16  H    0.126835
 Sum of Mulliken atomic charges =   0.00000

 Dipole moment (field-independent basis, Debye):
    X=             -0.3043    Y=             -1.1549    Z=             -0.5231  Tot=              1.3039
 Quadrupole moment (field-independent basis, Debye-Ang):
   XX=            -40.6844   YY=            -50.4243   ZZ=            -42.7938
   XY=             -1.8160   XZ=             -0.2556   YZ=             -1.8384

 Normal termination of Gaussian 09 at Fri Aug 10 01:03:41 2018.
