 Gaussian 09, Revision C.01,
 Gaussian 09:  EM64L-G09RevC.01 23-Sep-2011

 --------------------------------------
 #SP PBE1PBE/Def2TZVP geom=connectivity
 --------------------------------------

 99/5=1,9=1/99;
 --------------
 Structure: 297
 --------------
 Charge =  0 Multiplicity = 1

                         Standard orientation:
 ---------------------------------------------------------------------
 Center     Atomic      Atomic             Coordinates (Angstroms)
 Number     Number       Type             X           Y           Z
 ---------------------------------------------------------------------
      1          1           0       -3.236584   -1.147295   -0.615885
      2          6           0       -2.239139   -0.712878   -0.720932
      3          6           0       -1.626288   -0.377390    0.638092
      4          1           0       -2.345742    0.178018   -1.347234
      5          1           0       -1.621796   -1.429786   -1.267869
      6          1           0       -2.260074    0.335192    1.177485
      7         14           0        0.089990    0.336498    0.554536
      8          1           0       -1.578059   -1.275474    1.263061
      9          8           0        0.170970    1.952211   -0.433180
     10          8           0        1.028178   -0.834465   -0.113832
     11          1           0        0.628541    0.719904    1.884846
     12          1           0       -0.182307    1.943938   -1.324665
     13          6           0        2.422227   -0.721550   -0.279759
     14          1           0        2.798975   -1.665281   -0.678038
     15          1           0        2.924572   -0.522066    0.674503
     16          1           0        2.678634    0.080807   -0.978020
 ---------------------------------------------------------------------

 SCF Done:  E(RPBE1PBE) =  -560.038421250     A.U. after   14 cycles

 The electronic state is 1-A.
 Alpha  occ. eigenvalues --  -66.27950 -19.21188 -19.18533 -10.26902 -10.21997
 Alpha  occ. eigenvalues --  -10.21860  -5.35238  -3.68778  -3.68662  -3.68491
 Alpha  occ. eigenvalues --   -1.04900  -0.97732  -0.78763  -0.71109  -0.64560
 Alpha  occ. eigenvalues --   -0.54965  -0.49429  -0.47359  -0.47042  -0.46100
 Alpha  occ. eigenvalues --   -0.43953  -0.41744  -0.38285  -0.36805  -0.35581
 Alpha  occ. eigenvalues --   -0.34063  -0.31479  -0.30709  -0.29999
 Alpha virt. eigenvalues --    0.01814   0.04501   0.05414   0.07560   0.08698
 Alpha virt. eigenvalues --    0.09294   0.10024   0.10613   0.11973   0.12817
 Alpha virt. eigenvalues --    0.13373   0.14648   0.15255   0.15843   0.18804

 Mulliken atomic charges:
              1
     1  H    0.130254
     2  C   -0.388662
     3  C   -0.289886
     4  H    0.113348
     5  H    0.140881
     6  H    0.126632
     7  Si   0.567862
     8  H    0.122047
     9  O   -0.626273
    10  O   -0.328671
    11  H   -0.041426
    12  H    0.309815
    13  C   -0.213880
    14  H    0.130163
    15  H    0.118193
    16  H    0.129605
 Sum of Mulliken atomic charges =   0.00000

 Dipole moment (field-independent basis, Debye):
    X=             -0.3156    Y=             -1.4125    Z=             -0.3984  Tot=              1.5012
 Quadrupole moment (field-independent basis, Debye-Ang):
   XX=            -40.4851   YY=            -50.9374   ZZ=            -42.7578
   XY=             -1.8947   XZ=             -0.2774   YZ=             -1.8979

 Normal termination of Gaussian 09 at Fri Aug 10 05:10:11 2018.
