 Gaussian 09, Revision C.01,
 Gaussian 09:  EM64L-G09RevC.01 23-Sep-2011

 --------------------------------------
 #SP PBE1PBE/Def2TZVP geom=connectivity
 --------------------------------------

 99/5=1,9=1/99;
 -------------
 Structure: 27
 -------------
 Charge =  0 Multiplicity = 1

                         Standard orientation:
 ---------------------------------------------------------------------
 Center     Atomic      Atomic             Coordinates (Angstroms)
 Number     Number       Type             X           Y           Z
 ---------------------------------------------------------------------
      1          1           0       -3.225426   -1.244000   -0.306588
      2          6           0       -2.232122   -0.850398   -0.536961
      3          6           0       -1.618241   -0.135040    0.665743
      4          1           0       -2.348329   -0.177093   -1.391637
      5          1           0       -1.610153   -1.689280   -0.858894
      6          1           0       -2.256636    0.697412    0.981775
      7         14           0        0.091490    0.537874    0.372092
      8          1           0       -1.560347   -0.816054    1.521511
      9          8           0        0.137332    1.442903   -0.635760
     10          8           0        1.037897   -0.768394    0.062178
     11          1           0        0.630573    1.290354    1.533955
     12          1           0       -0.218470    1.176930   -1.485632
     13          6           0        2.430415   -0.697267   -0.136536
     14          1           0        2.814215   -1.712681   -0.249792
     15          1           0        2.933795   -0.228996    0.717918
     16          1           0        2.677765   -0.126673   -1.036719
 ---------------------------------------------------------------------

 SCF Done:  E(RPBE1PBE) =  -559.973070976     A.U. after   12 cycles

 The electronic state is 1-A.
 Alpha  occ. eigenvalues --  -66.20798 -19.21257 -19.18663 -10.26001 -10.21511
 Alpha  occ. eigenvalues --  -10.19628  -5.30056  -3.63831  -3.63275  -3.63112
 Alpha  occ. eigenvalues --   -1.11042  -1.02575  -0.77633  -0.69915  -0.63888
 Alpha  occ. eigenvalues --   -0.61333  -0.51498  -0.47376  -0.46635  -0.45950
 Alpha  occ. eigenvalues --   -0.43568  -0.42767  -0.41305  -0.39476  -0.36304
 Alpha  occ. eigenvalues --   -0.35648  -0.31099  -0.29657  -0.28430
 Alpha virt. eigenvalues --    0.01793   0.06182   0.06628   0.08481   0.09131
 Alpha virt. eigenvalues --    0.10537   0.11402   0.12074   0.12560   0.13504
 Alpha virt. eigenvalues --    0.15271   0.15642   0.17053   0.17672   0.19779

 Mulliken atomic charges:
              1
     1  H    0.130803
     2  C   -0.400907
     3  C   -0.337850
     4  H    0.096936
     5  H    0.145125
     6  H    0.114936
     7  Si   0.453905
     8  H    0.113379
     9  O   -0.333806
    10  O   -0.361729
    11  H   -0.097224
    12  H    0.334790
    13  C   -0.211458
    14  H    0.127670
    15  H    0.117655
    16  H    0.107776
 Sum of Mulliken atomic charges =   0.00000

 Dipole moment (field-independent basis, Debye):
    X=             -0.2574    Y=              0.0872    Z=             -1.6844  Tot=              1.7062
 Quadrupole moment (field-independent basis, Debye-Ang):
   XX=            -41.9106   YY=            -47.8728   ZZ=            -42.8274
   XY=             -1.4404   XZ=             -0.1411   YZ=             -1.8343

 Normal termination of Gaussian 09 at Fri Aug 10 00:44:56 2018.
