 Gaussian 09, Revision C.01,
 Gaussian 09:  EM64L-G09RevC.01 23-Sep-2011

 --------------------------------------
 #SP PBE1PBE/Def2TZVP geom=connectivity
 --------------------------------------

 99/5=1,9=1/99;
 -------------
 Structure: 22
 -------------
 Charge =  0 Multiplicity = 1

                         Standard orientation:
 ---------------------------------------------------------------------
 Center     Atomic      Atomic             Coordinates (Angstroms)
 Number     Number       Type             X           Y           Z
 ---------------------------------------------------------------------
      1          1           0       -3.224978   -1.245514   -0.300138
      2          6           0       -2.231791   -0.853016   -0.532888
      3          6           0       -1.617938   -0.130606    0.665609
      4          1           0       -2.348249   -0.184669   -1.391412
      5          1           0       -1.609665   -1.693595   -0.850057
      6          1           0       -2.256489    0.703505    0.976916
      7         14           0        0.091605    0.540999    0.367892
      8          1           0       -1.559790   -0.806668    1.525276
      9          8           0        0.135750    1.433884   -0.638235
     10          8           0        1.038277   -0.766814    0.065395
     11          1           0        0.630646    1.300278    1.525343
     12          1           0       -0.219107    1.163665   -1.485806
     13          6           0        2.430757   -0.696512   -0.133885
     14          1           0        2.814777   -1.712473   -0.241338
     15          1           0        2.934125   -0.223215    0.717801
     16          1           0        2.677873   -0.131053   -1.037367
 ---------------------------------------------------------------------

 SCF Done:  E(RPBE1PBE) =  -559.965392413     A.U. after   12 cycles

 The electronic state is 1-A.
 Alpha  occ. eigenvalues --  -66.20616 -19.21249 -19.18626 -10.25991 -10.21503
 Alpha  occ. eigenvalues --  -10.19584  -5.29967  -3.63767  -3.63169  -3.63005
 Alpha  occ. eigenvalues --   -1.11328  -1.02552  -0.77614  -0.69901  -0.63926
 Alpha  occ. eigenvalues --   -0.61483  -0.51513  -0.47473  -0.46663  -0.45937
 Alpha  occ. eigenvalues --   -0.43612  -0.42840  -0.41404  -0.39461  -0.36271
 Alpha  occ. eigenvalues --   -0.35632  -0.31071  -0.29633  -0.28385
 Alpha virt. eigenvalues --    0.01784   0.06188   0.06651   0.08493   0.09136
 Alpha virt. eigenvalues --    0.10544   0.11417   0.12087   0.12565   0.13502
 Alpha virt. eigenvalues --    0.15281   0.15668   0.17085   0.17702   0.19791

 Mulliken atomic charges:
              1
     1  H    0.130819
     2  C   -0.401171
     3  C   -0.339081
     4  H    0.096711
     5  H    0.145197
     6  H    0.114715
     7  Si   0.451508
     8  H    0.113208
     9  O   -0.327047
    10  O   -0.362706
    11  H   -0.098426
    12  H    0.335090
    13  C   -0.211577
    14  H    0.127656
    15  H    0.117691
    16  H    0.107414
 Sum of Mulliken atomic charges =   0.00000

 Dipole moment (field-independent basis, Debye):
    X=             -0.2533    Y=              0.1020    Z=             -1.7114  Tot=              1.7330
 Quadrupole moment (field-independent basis, Debye-Ang):
   XX=            -41.9295   YY=            -47.8357   ZZ=            -42.8244
   XY=             -1.4331   XZ=             -0.1410   YZ=             -1.8416

 Normal termination of Gaussian 09 at Fri Aug 10 00:11:20 2018.
