 Gaussian 09, Revision C.01,
 Gaussian 09:  EM64L-G09RevC.01 23-Sep-2011

 --------------------------------------
 #SP PBE1PBE/Def2TZVP geom=connectivity
 --------------------------------------

 99/5=1,9=1/99;
 -------------
 Structure: 26
 -------------
 Charge =  0 Multiplicity = 1

                         Standard orientation:
 ---------------------------------------------------------------------
 Center     Atomic      Atomic             Coordinates (Angstroms)
 Number     Number       Type             X           Y           Z
 ---------------------------------------------------------------------
      1          1           0       -3.225316   -1.244364   -0.305447
      2          6           0       -2.232038   -0.850945   -0.536251
      3          6           0       -1.618168   -0.134313    0.665700
      4          1           0       -2.348301   -0.178530   -1.391619
      5          1           0       -1.610031   -1.690126   -0.857331
      6          1           0       -2.256601    0.698431    0.980886
      7         14           0        0.091520    0.538390    0.371313
      8          1           0       -1.560217   -0.814439    1.522169
      9          8           0        0.136865    1.441522   -0.636030
     10          8           0        1.037990   -0.768146    0.062727
     11          1           0        0.630589    1.292098    1.532386
     12          1           0       -0.218035    1.175012   -1.485830
     13          6           0        2.430500   -0.697149   -0.136093
     14          1           0        2.814352   -1.712659   -0.248309
     15          1           0        2.933874   -0.227969    0.717865
     16          1           0        2.677798   -0.127472   -1.036871
 ---------------------------------------------------------------------

 SCF Done:  E(RPBE1PBE) =  -559.971761002     A.U. after   12 cycles

 The electronic state is 1-A.
 Alpha  occ. eigenvalues --  -66.20766 -19.21256 -19.18659 -10.26000 -10.21508
 Alpha  occ. eigenvalues --  -10.19618  -5.30040  -3.63819  -3.63256  -3.63093
 Alpha  occ. eigenvalues --   -1.11092  -1.02573  -0.77628  -0.69913  -0.63895
 Alpha  occ. eigenvalues --   -0.61362  -0.51502  -0.47392  -0.46640  -0.45947
 Alpha  occ. eigenvalues --   -0.43575  -0.42780  -0.41322  -0.39474  -0.36297
 Alpha  occ. eigenvalues --   -0.35643  -0.31095  -0.29654  -0.28420
 Alpha virt. eigenvalues --    0.01792   0.06183   0.06632   0.08484   0.09132
 Alpha virt. eigenvalues --    0.10538   0.11405   0.12077   0.12561   0.13504
 Alpha virt. eigenvalues --    0.15273   0.15647   0.17060   0.17675   0.19782

 Mulliken atomic charges:
              1
     1  H    0.130799
     2  C   -0.400951
     3  C   -0.338044
     4  H    0.096901
     5  H    0.145120
     6  H    0.114887
     7  Si   0.453561
     8  H    0.113335
     9  O   -0.332632
    10  O   -0.361901
    11  H   -0.097462
    12  H    0.334827
    13  C   -0.211483
    14  H    0.127674
    15  H    0.117672
    16  H    0.107699
 Sum of Mulliken atomic charges =   0.00000

 Dipole moment (field-independent basis, Debye):
    X=             -0.2549    Y=              0.0900    Z=             -1.6903  Tot=              1.7118
 Quadrupole moment (field-independent basis, Debye-Ang):
   XX=            -41.9148   YY=            -47.8662   ZZ=            -42.8254
   XY=             -1.4387   XZ=             -0.1429   YZ=             -1.8380

 Normal termination of Gaussian 09 at Fri Aug 10 00:38:16 2018.
