 Gaussian 09, Revision C.01,
 Gaussian 09:  EM64L-G09RevC.01 23-Sep-2011

 --------------------------------------
 #SP PBE1PBE/Def2TZVP geom=connectivity
 --------------------------------------

 99/5=1,9=1/99;
 --------------
 Structure: 243
 --------------
 Charge =  0 Multiplicity = 1

                         Standard orientation:
 ---------------------------------------------------------------------
 Center     Atomic      Atomic             Coordinates (Angstroms)
 Number     Number       Type             X           Y           Z
 ---------------------------------------------------------------------
      1          1           0       -3.233528   -1.169312   -0.566436
      2          6           0       -2.237183   -0.738170   -0.693165
      3          6           0       -1.624094   -0.336148    0.647576
      4          1           0       -2.346343    0.121251   -1.361592
      5          1           0       -1.618575   -1.479187   -1.205442
      6          1           0       -2.259140    0.400147    1.152541
      7         14           0        0.090444    0.376831    0.528219
      8          1           0       -1.573293   -1.202947    1.315068
      9          8           0        0.161477    1.854336   -0.475996
     10          8           0        1.030867   -0.822828   -0.083737
     11          1           0        0.629098    0.825159    1.838034
     12          1           0       -0.191469    1.802806   -1.364867
     13          6           0        2.424522   -0.714834   -0.256120
     14          1           0        2.803179   -1.675798   -0.608770
     15          1           0        2.927117   -0.468425    0.686981
     16          1           0        2.678525    0.053517   -0.992469
 ---------------------------------------------------------------------

 SCF Done:  E(RPBE1PBE) =  -560.052610220     A.U. after   13 cycles

 The electronic state is 1-A.
 Alpha  occ. eigenvalues --  -66.26945 -19.20683 -19.19314 -10.26702 -10.21875
 Alpha  occ. eigenvalues --  -10.21435  -5.34340  -3.67870  -3.67766  -3.67609
 Alpha  occ. eigenvalues --   -1.04548  -0.99676  -0.78518  -0.70850  -0.64331
 Alpha  occ. eigenvalues --   -0.55346  -0.50391  -0.47137  -0.46856  -0.46040
 Alpha  occ. eigenvalues --   -0.43784  -0.41428  -0.38133  -0.36910  -0.36336
 Alpha  occ. eigenvalues --   -0.34429  -0.31795  -0.30696  -0.30100
 Alpha virt. eigenvalues --    0.02192   0.05003   0.05715   0.07761   0.08853
 Alpha virt. eigenvalues --    0.09839   0.10373   0.10921   0.12130   0.13218
 Alpha virt. eigenvalues --    0.13517   0.14993   0.15571   0.16079   0.19013

 Mulliken atomic charges:
              1
     1  H    0.130180
     2  C   -0.390747
     3  C   -0.295619
     4  H    0.109904
     5  H    0.141518
     6  H    0.124310
     7  Si   0.560054
     8  H    0.120231
     9  O   -0.589641
    10  O   -0.332997
    11  H   -0.050493
    12  H    0.313153
    13  C   -0.212643
    14  H    0.129514
    15  H    0.117860
    16  H    0.125415
 Sum of Mulliken atomic charges =   0.00000

 Dipole moment (field-independent basis, Debye):
    X=             -0.2983    Y=             -1.0294    Z=             -0.5916  Tot=              1.2242
 Quadrupole moment (field-independent basis, Debye-Ang):
   XX=            -40.7848   YY=            -50.1764   ZZ=            -42.8100
   XY=             -1.7776   XZ=             -0.2432   YZ=             -1.8134

 Normal termination of Gaussian 09 at Thu Aug  9 22:59:52 2018.
