 Gaussian 09, Revision C.01,
 Gaussian 09:  EM64L-G09RevC.01 23-Sep-2011

 --------------------------------------
 #SP PBE1PBE/Def2TZVP geom=connectivity
 --------------------------------------

 99/5=1,9=1/99;
 --------------
 Structure: 258
 --------------
 Charge =  0 Multiplicity = 1

                         Standard orientation:
 ---------------------------------------------------------------------
 Center     Atomic      Atomic             Coordinates (Angstroms)
 Number     Number       Type             X           Y           Z
 ---------------------------------------------------------------------
      1          1           0       -3.234389   -1.163188   -0.580650
      2          6           0       -2.237741   -0.730980   -0.701225
      3          6           0       -1.624709   -0.347794    0.645045
      4          1           0       -2.346202    0.137606   -1.357814
      5          1           0       -1.619485   -1.465288   -1.223490
      6          1           0       -2.259405    0.381902    1.159930
      7         14           0        0.090308    0.365666    0.535871
      8          1           0       -1.574611   -1.223708    1.300585
      9          8           0        0.164142    1.881405   -0.463997
     10          8           0        1.030113   -0.826077   -0.092289
     11          1           0        0.628943    0.795625    1.851838
     12          1           0       -0.188701    1.842195   -1.354562
     13          6           0        2.423876   -0.716614   -0.262863
     14          1           0        2.802006   -1.672886   -0.628588
     15          1           0        2.926409   -0.483495    0.683645
     16          1           0        2.678536    0.061613   -0.988536
 ---------------------------------------------------------------------

 SCF Done:  E(RPBE1PBE) =  -560.049159142     A.U. after   13 cycles

 The electronic state is 1-A.
 Alpha  occ. eigenvalues --  -66.27235 -19.20822 -19.19110 -10.26756 -10.21908
 Alpha  occ. eigenvalues --  -10.21553  -5.34595  -3.68126  -3.68020  -3.67860
 Alpha  occ. eigenvalues --   -1.04637  -0.99105  -0.78585  -0.70920  -0.64392
 Alpha  occ. eigenvalues --   -0.55187  -0.50135  -0.47199  -0.46908  -0.46058
 Alpha  occ. eigenvalues --   -0.43831  -0.41520  -0.38147  -0.36807  -0.36197
 Alpha  occ. eigenvalues --   -0.34264  -0.31700  -0.30719  -0.30134
 Alpha virt. eigenvalues --    0.02115   0.04871   0.05637   0.07707   0.08818
 Alpha virt. eigenvalues --    0.09718   0.10259   0.10830   0.12089   0.13106
 Alpha virt. eigenvalues --    0.13471   0.14911   0.15466   0.16006   0.18954

 Mulliken atomic charges:
              1
     1  H    0.130191
     2  C   -0.390180
     3  C   -0.293882
     4  H    0.110850
     5  H    0.141333
     6  H    0.124949
     7  Si   0.562780
     8  H    0.120736
     9  O   -0.600583
    10  O   -0.331809
    11  H   -0.047933
    12  H    0.312313
    13  C   -0.212962
    14  H    0.129684
    15  H    0.117942
    16  H    0.126571
 Sum of Mulliken atomic charges =   0.00000

 Dipole moment (field-independent basis, Debye):
    X=             -0.3027    Y=             -1.1317    Z=             -0.5364  Tot=              1.2884
 Quadrupole moment (field-independent basis, Debye-Ang):
   XX=            -40.7041   YY=            -50.3799   ZZ=            -42.7943
   XY=             -1.8082   XZ=             -0.2531   YZ=             -1.8357

 Normal termination of Gaussian 09 at Fri Aug 10 00:43:07 2018.
