 Gaussian 09, Revision C.01,
 Gaussian 09:  EM64L-G09RevC.01 23-Sep-2011

 --------------------------------------
 #SP PBE1PBE/Def2TZVP geom=connectivity
 --------------------------------------

 99/5=1,9=1/99;
 ------------
 Structure: 2
 ------------
 Charge =  0 Multiplicity = 1

                         Standard orientation:
 ---------------------------------------------------------------------
 Center     Atomic      Atomic             Coordinates (Angstroms)
 Number     Number       Type             X           Y           Z
 ---------------------------------------------------------------------
      1          1           0        3.224452   -1.249711    0.272837
      2          6           0        2.231472   -0.862785    0.515588
      3          6           0        1.617559   -0.110470   -0.664335
      4          1           0        2.348409   -0.216113    1.390491
      5          1           0        1.609123   -1.710793    0.811856
      6          1           0        2.256332    0.730920   -0.954909
      7         14           0       -0.091656    0.554113   -0.349472
      8          1           0        1.558929   -0.764847   -1.540589
      9          8           0       -0.134233    1.395408    0.647837
     10          8           0       -1.038727   -0.760500   -0.079440
     11          1           0       -0.630732    1.342235   -1.487462
     12          1           0        0.220754    1.103995    1.488301
     13          6           0       -2.431126   -0.694692    0.121922
     14          1           0       -2.815491   -1.712879    0.204096
     15          1           0       -2.934552   -0.200106   -0.717546
     16          1           0       -2.677790   -0.151866    1.039303
 ---------------------------------------------------------------------

 SCF Done:  E(RPBE1PBE) =  -559.926522546     A.U. after   12 cycles

 The electronic state is 1-A.
 Alpha  occ. eigenvalues --  -66.19798 -19.21217 -19.18456 -10.25942 -10.21484
 Alpha  occ. eigenvalues --  -10.19418  -5.29599  -3.63527  -3.62711  -3.62547
 Alpha  occ. eigenvalues --   -1.12447  -1.02432  -0.77550  -0.69832  -0.64120
 Alpha  occ. eigenvalues --   -0.61953  -0.51590  -0.47959  -0.46803  -0.45882
 Alpha  occ. eigenvalues --   -0.43858  -0.43079  -0.41774  -0.39371  -0.36122
 Alpha  occ. eigenvalues --   -0.35576  -0.30941  -0.29529  -0.28197
 Alpha virt. eigenvalues --    0.01665   0.06213   0.06729   0.08537   0.09143
 Alpha virt. eigenvalues --    0.10567   0.11465   0.12137   0.12582   0.13480
 Alpha virt. eigenvalues --    0.15316   0.15781   0.17212   0.17802   0.19833

 Mulliken atomic charges:
              1
     1  H    0.130954
     2  C   -0.402385
     3  C   -0.344467
     4  H    0.095796
     5  H    0.145635
     6  H    0.113897
     7  Si   0.441670
     8  H    0.112713
     9  O   -0.299912
    10  O   -0.367118
    11  H   -0.103705
    12  H    0.337692
    13  C   -0.212008
    14  H    0.127557
    15  H    0.117815
    16  H    0.105866
 Sum of Mulliken atomic charges =   0.00000

 Dipole moment (field-independent basis, Debye):
    X=              0.2512    Y=              0.1530    Z=              1.8288  Tot=              1.8523
 Quadrupole moment (field-independent basis, Debye-Ang):
   XX=            -42.0092   YY=            -47.7031   ZZ=            -42.8024
   XY=              1.4124   XZ=             -0.1376   YZ=              1.8704

 Normal termination of Gaussian 09 at Fri Aug 10 01:04:49 2018.
