 Gaussian 09, Revision C.01,
 Gaussian 09:  EM64L-G09RevC.01 23-Sep-2011

 --------------------------------------
 #SP PBE1PBE/Def2TZVP geom=connectivity
 --------------------------------------

 99/5=1,9=1/99;
 -------------
 Structure: 25
 -------------
 Charge =  0 Multiplicity = 1

                         Standard orientation:
 ---------------------------------------------------------------------
 Center     Atomic      Atomic             Coordinates (Angstroms)
 Number     Number       Type             X           Y           Z
 ---------------------------------------------------------------------
      1          1           0       -3.225296   -1.244608   -0.303819
      2          6           0       -2.232028   -0.851517   -0.535223
      3          6           0       -1.618154   -0.133083    0.665650
      4          1           0       -2.348315   -0.180379   -1.391590
      5          1           0       -1.610011   -1.691165   -0.855060
      6          1           0       -2.256597    0.700119    0.979604
      7         14           0        0.091518    0.539210    0.370238
      8          1           0       -1.560179   -0.811930    1.523132
      9          8           0        0.136818    1.439126   -0.636703
     10          8           0        1.038007   -0.767767    0.063587
     11          1           0        0.630590    1.294658    1.530179
     12          1           0       -0.218088    1.171343   -1.486099
     13          6           0        2.430513   -0.697043   -0.135358
     14          1           0        2.814381   -1.712711   -0.246066
     15          1           0        2.933890   -0.226581    0.717893
     16          1           0        2.677788   -0.128704   -1.036988
 ---------------------------------------------------------------------

 SCF Done:  E(RPBE1PBE) =  -559.969786848     A.U. after   12 cycles

 The electronic state is 1-A.
 Alpha  occ. eigenvalues --  -66.20718 -19.21256 -19.18647 -10.25997 -10.21506
 Alpha  occ. eigenvalues --  -10.19608  -5.30016  -3.63802  -3.63228  -3.63065
 Alpha  occ. eigenvalues --   -1.11161  -1.02565  -0.77624  -0.69909  -0.63902
 Alpha  occ. eigenvalues --   -0.61395  -0.51505  -0.47417  -0.46646  -0.45944
 Alpha  occ. eigenvalues --   -0.43586  -0.42799  -0.41348  -0.39470  -0.36288
 Alpha  occ. eigenvalues --   -0.35640  -0.31087  -0.29647  -0.28409
 Alpha virt. eigenvalues --    0.01785   0.06185   0.06636   0.08487   0.09133
 Alpha virt. eigenvalues --    0.10540   0.11408   0.12080   0.12563   0.13503
 Alpha virt. eigenvalues --    0.15276   0.15654   0.17067   0.17682   0.19784

 Mulliken atomic charges:
              1
     1  H    0.130807
     2  C   -0.401025
     3  C   -0.338361
     4  H    0.096843
     5  H    0.145147
     6  H    0.114835
     7  Si   0.452889
     8  H    0.113304
     9  O   -0.330939
    10  O   -0.362159
    11  H   -0.097769
    12  H    0.334987
    13  C   -0.211504
    14  H    0.127666
    15  H    0.117675
    16  H    0.107603
 Sum of Mulliken atomic charges =   0.00000

 Dipole moment (field-independent basis, Debye):
    X=             -0.2549    Y=              0.0936    Z=             -1.6973  Tot=              1.7189
 Quadrupole moment (field-independent basis, Debye-Ang):
   XX=            -41.9201   YY=            -47.8573   ZZ=            -42.8239
   XY=             -1.4372   XZ=             -0.1426   YZ=             -1.8395

 Normal termination of Gaussian 09 at Fri Aug 10 00:31:28 2018.
