 Gaussian 09, Revision C.01,
 Gaussian 09:  EM64L-G09RevC.01 23-Sep-2011

 --------------------------------------
 #SP PBE1PBE/Def2TZVP geom=connectivity
 --------------------------------------

 99/5=1,9=1/99;
 --------------
 Structure: 269
 --------------
 Charge =  0 Multiplicity = 1

                         Standard orientation:
 ---------------------------------------------------------------------
 Center     Atomic      Atomic             Coordinates (Angstroms)
 Number     Number       Type             X           Y           Z
 ---------------------------------------------------------------------
      1          1           0       -3.235113   -1.158419   -0.591074
      2          6           0       -2.238218   -0.725536   -0.707096
      3          6           0       -1.625221   -0.356327    0.643091
      4          1           0       -2.346109    0.149713   -1.354872
      5          1           0       -1.620253   -1.454840   -1.236667
      6          1           0       -2.259627    0.368450    1.165232
      7         14           0        0.090187    0.357302    0.541440
      8          1           0       -1.575696   -1.238862    1.289734
      9          8           0        0.166538    1.901491   -0.455119
     10          8           0        1.029479   -0.828510   -0.098598
     11          1           0        0.628816    0.773628    1.861786
     12          1           0       -0.187485    1.872005   -1.346055
     13          6           0        2.423330   -0.718057   -0.267817
     14          1           0        2.801023   -1.670774   -0.643144
     15          1           0        2.925818   -0.494801    0.681089
     16          1           0        2.678524    0.067346   -0.985527
 ---------------------------------------------------------------------

 SCF Done:  E(RPBE1PBE) =  -560.046322700     A.U. after   13 cycles

 The electronic state is 1-A.
 Alpha  occ. eigenvalues --  -66.27445 -19.20924 -19.18951 -10.26795 -10.21933
 Alpha  occ. eigenvalues --  -10.21642  -5.34781  -3.68315  -3.68207  -3.68044
 Alpha  occ. eigenvalues --   -1.04707  -0.98694  -0.78636  -0.70972  -0.64440
 Alpha  occ. eigenvalues --   -0.55098  -0.49933  -0.47245  -0.46945  -0.46073
 Alpha  occ. eigenvalues --   -0.43867  -0.41588  -0.38176  -0.36779  -0.36040
 Alpha  occ. eigenvalues --   -0.34175  -0.31620  -0.30726  -0.30135
 Alpha virt. eigenvalues --    0.02045   0.04769   0.05576   0.07666   0.08790
 Alpha virt. eigenvalues --    0.09609   0.10181   0.10766   0.12056   0.13021
 Alpha virt. eigenvalues --    0.13441   0.14844   0.15397   0.15956   0.18910

 Mulliken atomic charges:
              1
     1  H    0.130207
     2  C   -0.389708
     3  C   -0.292718
     4  H    0.111529
     5  H    0.141210
     6  H    0.125431
     7  Si   0.564555
     8  H    0.121124
     9  O   -0.608353
    10  O   -0.330928
    11  H   -0.046052
    12  H    0.311654
    13  C   -0.213208
    14  H    0.129807
    15  H    0.117995
    16  H    0.127457
 Sum of Mulliken atomic charges =   0.00000

 Dipole moment (field-independent basis, Debye):
    X=             -0.3088    Y=             -1.2088    Z=             -0.4954  Tot=              1.3423
 Quadrupole moment (field-independent basis, Debye-Ang):
   XX=            -40.6425   YY=            -50.5305   ZZ=            -42.7856
   XY=             -1.8364   XZ=             -0.2576   YZ=             -1.8535

 Normal termination of Gaussian 09 at Fri Aug 10 01:58:09 2018.
