 Gaussian 09, Revision C.01,
 Gaussian 09:  EM64L-G09RevC.01 23-Sep-2011

 --------------------------------------
 #SP PBE1PBE/Def2TZVP geom=connectivity
 --------------------------------------

 99/5=1,9=1/99;
 --------------
 Structure: 247
 --------------
 Charge =  0 Multiplicity = 1

                         Standard orientation:
 ---------------------------------------------------------------------
 Center     Atomic      Atomic             Coordinates (Angstroms)
 Number     Number       Type             X           Y           Z
 ---------------------------------------------------------------------
      1          1           0       -3.233964   -1.167434   -0.570193
      2          6           0       -2.237487   -0.736125   -0.695319
      3          6           0       -1.624396   -0.339011    0.646882
      4          1           0       -2.346353    0.125680   -1.360716
      5          1           0       -1.619045   -1.475503   -1.210159
      6          1           0       -2.259277    0.395674    1.154392
      7         14           0        0.090351    0.373906    0.530181
      8          1           0       -1.573890   -1.208176    1.311315
      9          8           0        0.162884    1.861598   -0.472740
     10          8           0        1.030489   -0.823848   -0.085931
     11          1           0        0.629025    0.817456    1.841614
     12          1           0       -0.190075    1.813182   -1.362806
     13          6           0        2.424188   -0.715637   -0.257820
     14          1           0        2.802605   -1.675455   -0.613830
     15          1           0        2.926776   -0.472698    0.686185
     16          1           0        2.678465    0.055238   -0.991432
 ---------------------------------------------------------------------

 SCF Done:  E(RPBE1PBE) =  -560.051743651     A.U. after   13 cycles

 The electronic state is 1-A.
 Alpha  occ. eigenvalues --  -66.27021 -19.20719 -19.19269 -10.26715 -10.21884
 Alpha  occ. eigenvalues --  -10.21467  -5.34407  -3.67936  -3.67832  -3.67675
 Alpha  occ. eigenvalues --   -1.04569  -0.99509  -0.78536  -0.70868  -0.64347
 Alpha  occ. eigenvalues --   -0.55293  -0.50319  -0.47153  -0.46869  -0.46045
 Alpha  occ. eigenvalues --   -0.43796  -0.41451  -0.38133  -0.36875  -0.36308
 Alpha  occ. eigenvalues --   -0.34379  -0.31770  -0.30704  -0.30111
 Alpha virt. eigenvalues --    0.02168   0.04969   0.05695   0.07747   0.08842
 Alpha virt. eigenvalues --    0.09810   0.10341   0.10897   0.12119   0.13191
 Alpha virt. eigenvalues --    0.13503   0.14973   0.15536   0.16058   0.18997

 Mulliken atomic charges:
              1
     1  H    0.130186
     2  C   -0.390600
     3  C   -0.295142
     4  H    0.110156
     5  H    0.141473
     6  H    0.124486
     7  Si   0.560751
     8  H    0.120380
     9  O   -0.592649
    10  O   -0.332691
    11  H   -0.049835
    12  H    0.313043
    13  C   -0.212707
    14  H    0.129555
    15  H    0.117882
    16  H    0.125711
 Sum of Mulliken atomic charges =   0.00000

 Dipole moment (field-independent basis, Debye):
    X=             -0.3006    Y=             -1.0564    Z=             -0.5781  Tot=              1.2412
 Quadrupole moment (field-independent basis, Debye-Ang):
   XX=            -40.7653   YY=            -50.2309   ZZ=            -42.8046
   XY=             -1.7875   XZ=             -0.2467   YZ=             -1.8209

 Normal termination of Gaussian 09 at Thu Aug  9 23:27:25 2018.
