 Gaussian 09, Revision C.01,
 Gaussian 09:  EM64L-G09RevC.01 23-Sep-2011

 --------------------------------------
 #SP PBE1PBE/Def2TZVP geom=connectivity
 --------------------------------------

 99/5=1,9=1/99;
 --------------
 Structure: 259
 --------------
 Charge =  0 Multiplicity = 1

                         Standard orientation:
 ---------------------------------------------------------------------
 Center     Atomic      Atomic             Coordinates (Angstroms)
 Number     Number       Type             X           Y           Z
 ---------------------------------------------------------------------
      1          1           0       -3.234426   -1.162775   -0.581757
      2          6           0       -2.237762   -0.730472   -0.701852
      3          6           0       -1.624735   -0.348762    0.644841
      4          1           0       -2.346184    0.138827   -1.357503
      5          1           0       -1.619523   -1.464236   -1.224902
      6          1           0       -2.259413    0.380399    1.160505
      7         14           0        0.090308    0.364756    0.536461
      8          1           0       -1.574675   -1.225386    1.299434
      9          8           0        0.164240    1.883679   -0.463017
     10          8           0        1.030081   -0.826338   -0.092974
     11          1           0        0.628940    0.793275    1.852899
     12          1           0       -0.188592    1.845444   -1.353628
     13          6           0        2.423850   -0.716739   -0.263410
     14          1           0        2.801952   -1.672629   -0.630164
     15          1           0        2.926378   -0.484661    0.683356
     16          1           0        2.678546    0.062263   -0.988239
 ---------------------------------------------------------------------

 SCF Done:  E(RPBE1PBE) =  -560.048855359     A.U. after   13 cycles

 The electronic state is 1-A.
 Alpha  occ. eigenvalues --  -66.27258 -19.20834 -19.19093 -10.26761 -10.21910
 Alpha  occ. eigenvalues --  -10.21562  -5.34615  -3.68147  -3.68041  -3.67880
 Alpha  occ. eigenvalues --   -1.04645  -0.99061  -0.78590  -0.70926  -0.64397
 Alpha  occ. eigenvalues --   -0.55176  -0.50114  -0.47205  -0.46912  -0.46059
 Alpha  occ. eigenvalues --   -0.43835  -0.41527  -0.38150  -0.36802  -0.36181
 Alpha  occ. eigenvalues --   -0.34253  -0.31692  -0.30721  -0.30135
 Alpha virt. eigenvalues --    0.02108   0.04861   0.05630   0.07702   0.08815
 Alpha virt. eigenvalues --    0.09707   0.10250   0.10822   0.12085   0.13097
 Alpha virt. eigenvalues --    0.13468   0.14904   0.15458   0.16000   0.18949

 Mulliken atomic charges:
              1
     1  H    0.130192
     2  C   -0.390133
     3  C   -0.293745
     4  H    0.110928
     5  H    0.141316
     6  H    0.125003
     7  Si   0.562985
     8  H    0.120775
     9  O   -0.601441
    10  O   -0.331710
    11  H   -0.047726
    12  H    0.312229
    13  C   -0.212993
    14  H    0.129700
    15  H    0.117951
    16  H    0.126668
 Sum of Mulliken atomic charges =   0.00000

 Dipole moment (field-independent basis, Debye):
    X=             -0.3028    Y=             -1.1404    Z=             -0.5320  Tot=              1.2943
 Quadrupole moment (field-independent basis, Debye-Ang):
   XX=            -40.6970   YY=            -50.3973   ZZ=            -42.7933
   XY=             -1.8106   XZ=             -0.2538   YZ=             -1.8374

 Normal termination of Gaussian 09 at Fri Aug 10 00:49:57 2018.
