 Gaussian 09, Revision C.01,
 Gaussian 09:  EM64L-G09RevC.01 23-Sep-2011

 --------------------------------------
 #SP PBE1PBE/Def2TZVP geom=connectivity
 --------------------------------------

 99/5=1,9=1/99;
 --------------
 Structure: 226
 --------------
 Charge =  0 Multiplicity = 1

                         Standard orientation:
 ---------------------------------------------------------------------
 Center     Atomic      Atomic             Coordinates (Angstroms)
 Number     Number       Type             X           Y           Z
 ---------------------------------------------------------------------
      1          1           0       -3.232948   -1.175638   -0.549647
      2          6           0       -2.236845   -0.746117   -0.683583
      3          6           0       -1.623673   -0.322062    0.650315
      4          1           0       -2.346575    0.102277   -1.365860
      5          1           0       -1.617975   -1.495052   -1.183889
      6          1           0       -2.258980    0.422024    1.143391
      7         14           0        0.090483    0.389734    0.519015
      8          1           0       -1.572297   -1.177878    1.331791
      9          8           0        0.159820    1.822882   -0.489799
     10          8           0        1.031376   -0.819241   -0.073577
     11          1           0        0.629191    0.859550    1.821255
     12          1           0       -0.193288    1.756743   -1.377638
     13          6           0        2.424940   -0.713372   -0.247999
     14          1           0        2.804002   -1.679750   -0.585073
     15          1           0        2.927612   -0.451423    0.690865
     16          1           0        2.678403    0.043041   -0.996789
 ---------------------------------------------------------------------

 SCF Done:  E(RPBE1PBE) =  -560.056037000     A.U. after   13 cycles

 The electronic state is 1-A.
 Alpha  occ. eigenvalues --  -66.26593 -19.20520 -19.19555 -10.26638 -10.21839
 Alpha  occ. eigenvalues --  -10.21299  -5.34038  -3.67565  -3.67461  -3.67309
 Alpha  occ. eigenvalues --   -1.04454  -1.00326  -0.78443  -0.70768  -0.64261
 Alpha  occ. eigenvalues --   -0.55577  -0.50646  -0.47062  -0.46796  -0.46020
 Alpha  occ. eigenvalues --   -0.43729  -0.41315  -0.38182  -0.37088  -0.36398
 Alpha  occ. eigenvalues --   -0.34682  -0.31873  -0.30652  -0.30027
 Alpha virt. eigenvalues --    0.02250   0.05147   0.05801   0.07824   0.08885
 Alpha virt. eigenvalues --    0.09949   0.10508   0.11035   0.12177   0.13334
 Alpha virt. eigenvalues --    0.13591   0.15072   0.15693   0.16173   0.19081

 Mulliken atomic charges:
              1
     1  H    0.130179
     2  C   -0.391405
     3  C   -0.297772
     4  H    0.108818
     5  H    0.141747
     6  H    0.123574
     7  Si   0.556188
     8  H    0.119671
     9  O   -0.576298
    10  O   -0.334413
    11  H   -0.053530
    12  H    0.314365
    13  C   -0.212254
    14  H    0.129313
    15  H    0.117765
    16  H    0.124051
 Sum of Mulliken atomic charges =   0.00000

 Dipole moment (field-independent basis, Debye):
    X=             -0.2955    Y=             -0.9139    Z=             -0.6595  Tot=              1.1651
 Quadrupole moment (field-independent basis, Debye-Ang):
   XX=            -40.8817   YY=            -49.9471   ZZ=            -42.8240
   XY=             -1.7461   XZ=             -0.2334   YZ=             -1.7938

 Normal termination of Gaussian 09 at Fri Aug 10 04:42:29 2018.
