 Gaussian 09, Revision C.01,
 Gaussian 09:  EM64L-G09RevC.01 23-Sep-2011

 --------------------------------------
 #SP PBE1PBE/Def2TZVP geom=connectivity
 --------------------------------------

 99/5=1,9=1/99;
 --------------
 Structure: 296
 --------------
 Charge =  0 Multiplicity = 1

                         Standard orientation:
 ---------------------------------------------------------------------
 Center     Atomic      Atomic             Coordinates (Angstroms)
 Number     Number       Type             X           Y           Z
 ---------------------------------------------------------------------
      1          1           0       -3.236408   -1.147970   -0.615014
      2          6           0       -2.239014   -0.713530   -0.720450
      3          6           0       -1.626158   -0.376850    0.638277
      4          1           0       -2.345734    0.176836   -1.347486
      5          1           0       -1.621608   -1.430822   -1.266813
      6          1           0       -2.260007    0.336107    1.177100
      7         14           0        0.090037    0.337158    0.554078
      8          1           0       -1.577812   -1.274413    1.263987
      9          8           0        0.170370    1.950830   -0.433840
     10          8           0        1.028335   -0.834254   -0.113349
     11          1           0        0.628587    0.721723    1.884054
     12          1           0       -0.182933    1.941781   -1.325308
     13          6           0        2.422366   -0.721322   -0.279411
     14          1           0        2.799207   -1.665341   -0.676921
     15          1           0        2.924718   -0.520993    0.674670
     16          1           0        2.678664    0.080485   -0.978344
 ---------------------------------------------------------------------

 SCF Done:  E(RPBE1PBE) =  -560.038669200     A.U. after   14 cycles

 The electronic state is 1-A.
 Alpha  occ. eigenvalues --  -66.27936 -19.21182 -19.18546 -10.26900 -10.21995
 Alpha  occ. eigenvalues --  -10.21853  -5.35224  -3.68764  -3.68649  -3.68478
 Alpha  occ. eigenvalues --   -1.04896  -0.97760  -0.78759  -0.71105  -0.64556
 Alpha  occ. eigenvalues --   -0.54968  -0.49444  -0.47357  -0.47040  -0.46099
 Alpha  occ. eigenvalues --   -0.43950  -0.41739  -0.38281  -0.36802  -0.35595
 Alpha  occ. eigenvalues --   -0.34065  -0.31482  -0.30711  -0.30006
 Alpha virt. eigenvalues --    0.01822   0.04510   0.05419   0.07563   0.08702
 Alpha virt. eigenvalues --    0.09303   0.10028   0.10618   0.11975   0.12823
 Alpha virt. eigenvalues --    0.13375   0.14654   0.15259   0.15846   0.18807

 Mulliken atomic charges:
              1
     1  H    0.130251
     2  C   -0.388694
     3  C   -0.289963
     4  H    0.113289
     5  H    0.140887
     6  H    0.126598
     7  Si   0.567780
     8  H    0.122012
     9  O   -0.625745
    10  O   -0.328735
    11  H   -0.041567
    12  H    0.309862
    13  C   -0.213870
    14  H    0.130157
    15  H    0.118194
    16  H    0.129543
 Sum of Mulliken atomic charges =   0.00000

 Dipole moment (field-independent basis, Debye):
    X=             -0.3145    Y=             -1.4068    Z=             -0.4015  Tot=              1.4964
 Quadrupole moment (field-independent basis, Debye-Ang):
   XX=            -40.4888   YY=            -50.9267   ZZ=            -42.7589
   XY=             -1.8918   XZ=             -0.2765   YZ=             -1.8962

 Normal termination of Gaussian 09 at Fri Aug 10 05:03:05 2018.
