 Gaussian 09, Revision C.01,
 Gaussian 09:  EM64L-G09RevC.01 23-Sep-2011

 --------------------------------------
 #SP PBE1PBE/Def2TZVP geom=connectivity
 --------------------------------------

 99/5=1,9=1/99;
 -------------
 Structure: 21
 -------------
 Charge =  0 Multiplicity = 1

                         Standard orientation:
 ---------------------------------------------------------------------
 Center     Atomic      Atomic             Coordinates (Angstroms)
 Number     Number       Type             X           Y           Z
 ---------------------------------------------------------------------
      1          1           0       -3.225212   -1.245381   -0.298849
      2          6           0       -2.231981   -0.853280   -0.532082
      3          6           0       -1.618092   -0.129370    0.665490
      4          1           0       -2.348352   -0.186040   -1.391478
      5          1           0       -1.609926   -1.694331   -0.848140
      6          1           0       -2.256572    0.705207    0.975694
      7         14           0        0.091524    0.541684    0.366947
      8          1           0       -1.560032   -0.804318    1.526038
      9          8           0        0.136675    1.431906   -0.638797
     10          8           0        1.038079   -0.766612    0.066178
     11          1           0        0.630605    1.302418    1.523423
     12          1           0       -0.219092    1.160260   -1.485812
     13          6           0        2.430571   -0.696703   -0.133154
     14          1           0        2.814497   -1.712839   -0.239274
     15          1           0        2.933961   -0.222345    0.717929
     16          1           0        2.677766   -0.132443   -1.037365
 ---------------------------------------------------------------------

 SCF Done:  E(RPBE1PBE) =  -559.963650994     A.U. after   12 cycles

 The electronic state is 1-A.
 Alpha  occ. eigenvalues --  -66.20575 -19.21250 -19.18615 -10.25987 -10.21505
 Alpha  occ. eigenvalues --  -10.19581  -5.29948  -3.63753  -3.63146  -3.62982
 Alpha  occ. eigenvalues --   -1.11383  -1.02543  -0.77614  -0.69895  -0.63930
 Alpha  occ. eigenvalues --   -0.61503  -0.51515  -0.47496  -0.46667  -0.45935
 Alpha  occ. eigenvalues --   -0.43623  -0.42855  -0.41428  -0.39458  -0.36263
 Alpha  occ. eigenvalues --   -0.35632  -0.31063  -0.29627  -0.28378
 Alpha virt. eigenvalues --    0.01773   0.06191   0.06654   0.08494   0.09137
 Alpha virt. eigenvalues --    0.10545   0.11417   0.12089   0.12565   0.13500
 Alpha virt. eigenvalues --    0.15285   0.15674   0.17089   0.17705   0.19792

 Mulliken atomic charges:
              1
     1  H    0.130836
     2  C   -0.401223
     3  C   -0.339380
     4  H    0.096677
     5  H    0.145244
     6  H    0.114703
     7  Si   0.450824
     8  H    0.113234
     9  O   -0.325636
    10  O   -0.362930
    11  H   -0.098712
    12  H    0.335267
    13  C   -0.211574
    14  H    0.127642
    15  H    0.117686
    16  H    0.107343
 Sum of Mulliken atomic charges =   0.00000

 Dipole moment (field-independent basis, Debye):
    X=             -0.2565    Y=              0.1037    Z=             -1.7164  Tot=              1.7385
 Quadrupole moment (field-independent basis, Debye-Ang):
   XX=            -41.9326   YY=            -47.8302   ZZ=            -42.8255
   XY=             -1.4341   XZ=             -0.1401   YZ=             -1.8413

 Normal termination of Gaussian 09 at Fri Aug 10 00:04:40 2018.
