 Gaussian 09, Revision C.01,
 Gaussian 09:  EM64L-G09RevC.01 23-Sep-2011

 --------------------------------------
 #SP PBE1PBE/Def2TZVP geom=connectivity
 --------------------------------------

 99/5=1,9=1/99;
 --------------
 Structure: 275
 --------------
 Charge =  0 Multiplicity = 1

                         Standard orientation:
 ---------------------------------------------------------------------
 Center     Atomic      Atomic             Coordinates (Angstroms)
 Number     Number       Type             X           Y           Z
 ---------------------------------------------------------------------
      1          1           0       -3.235353   -1.156278   -0.596442
      2          6           0       -2.238358   -0.723002   -0.710118
      3          6           0       -1.625399   -0.360981    0.642031
      4          1           0       -2.346012    0.155641   -1.353321
      5          1           0       -1.620501   -1.449659   -1.243440
      6          1           0       -2.259697    0.361190    1.167899
      7         14           0        0.090167    0.352810    0.544254
      8          1           0       -1.576113   -1.246893    1.284059
      9          8           0        0.167095    1.912789   -0.450314
     10          8           0        1.029265   -0.829838   -0.101892
     11          1           0        0.628771    0.762119    1.866802
     12          1           0       -0.185543    1.887516   -1.341464
     13          6           0        2.423153   -0.718794   -0.270415
     14          1           0        2.800680   -1.669616   -0.650684
     15          1           0        2.925608   -0.500604    0.679686
     16          1           0        2.678572    0.070295   -0.983991
 ---------------------------------------------------------------------

 SCF Done:  E(RPBE1PBE) =  -560.044681668     A.U. after   13 cycles

 The electronic state is 1-A.
 Alpha  occ. eigenvalues --  -66.27559 -19.20985 -19.18858 -10.26820 -10.21946
 Alpha  occ. eigenvalues --  -10.21689  -5.34883  -3.68418  -3.68309  -3.68144
 Alpha  occ. eigenvalues --   -1.04750  -0.98488  -0.78663  -0.71003  -0.64465
 Alpha  occ. eigenvalues --   -0.55061  -0.49828  -0.47272  -0.46969  -0.46079
 Alpha  occ. eigenvalues --   -0.43886  -0.41623  -0.38197  -0.36776  -0.35944
 Alpha  occ. eigenvalues --   -0.34140  -0.31585  -0.30730  -0.30124
 Alpha virt. eigenvalues --    0.02005   0.04713   0.05542   0.07642   0.08775
 Alpha virt. eigenvalues --    0.09544   0.10143   0.10731   0.12039   0.12975
 Alpha virt. eigenvalues --    0.13427   0.14802   0.15364   0.15929   0.18887

 Mulliken atomic charges:
              1
     1  H    0.130212
     2  C   -0.389511
     3  C   -0.292035
     4  H    0.111962
     5  H    0.141122
     6  H    0.125696
     7  Si   0.565372
     8  H    0.121318
     9  O   -0.612322
    10  O   -0.330434
    11  H   -0.045040
    12  H    0.311164
    13  C   -0.213360
    14  H    0.129894
    15  H    0.118053
    16  H    0.127910
 Sum of Mulliken atomic charges =   0.00000

 Dipole moment (field-independent basis, Debye):
    X=             -0.3078    Y=             -1.2539    Z=             -0.4743  Tot=              1.3755
 Quadrupole moment (field-independent basis, Debye-Ang):
   XX=            -40.6076   YY=            -50.6221   ZZ=            -42.7785
   XY=             -1.8450   XZ=             -0.2649   YZ=             -1.8620

 Normal termination of Gaussian 09 at Fri Aug 10 02:37:56 2018.
