 Gaussian 09, Revision C.01,
 Gaussian 09:  EM64L-G09RevC.01 23-Sep-2011

 --------------------------------------
 #SP PBE1PBE/Def2TZVP geom=connectivity
 --------------------------------------

 99/5=1,9=1/99;
 --------------
 Structure: 250
 --------------
 Charge =  0 Multiplicity = 1

                         Standard orientation:
 ---------------------------------------------------------------------
 Center     Atomic      Atomic             Coordinates (Angstroms)
 Number     Number       Type             X           Y           Z
 ---------------------------------------------------------------------
      1          1           0       -3.233873   -1.166593   -0.573108
      2          6           0       -2.237400   -0.734906   -0.696959
      3          6           0       -1.624340   -0.341692    0.646404
      4          1           0       -2.346266    0.128831   -1.359846
      5          1           0       -1.618937   -1.472773   -1.213938
      6          1           0       -2.259242    0.391503    1.156039
      7         14           0        0.090398    0.371587    0.531812
      8          1           0       -1.573834   -1.212787    1.308305
      9          8           0        0.162515    1.867176   -0.470380
     10          8           0        1.030566   -0.824354   -0.087767
     11          1           0        0.629040    0.811325    1.844540
     12          1           0       -0.190355    1.821466   -1.359599
     13          6           0        2.424267   -0.715622   -0.259314
     14          1           0        2.802705   -1.674395   -0.618109
     15          1           0        2.926833   -0.475426    0.685405
     16          1           0        2.678546    0.057389   -0.990673
 ---------------------------------------------------------------------

 SCF Done:  E(RPBE1PBE) =  -560.051031869     A.U. after   13 cycles

 The electronic state is 1-A.
 Alpha  occ. eigenvalues --  -66.27083 -19.20750 -19.19215 -10.26728 -10.21890
 Alpha  occ. eigenvalues --  -10.21491  -5.34462  -3.67992  -3.67887  -3.67729
 Alpha  occ. eigenvalues --   -1.04590  -0.99416  -0.78550  -0.70884  -0.64360
 Alpha  occ. eigenvalues --   -0.55268  -0.50277  -0.47167  -0.46881  -0.46049
 Alpha  occ. eigenvalues --   -0.43806  -0.41472  -0.38136  -0.36852  -0.36282
 Alpha  occ. eigenvalues --   -0.34345  -0.31753  -0.30709  -0.30120
 Alpha virt. eigenvalues --    0.02161   0.04943   0.05678   0.07735   0.08839
 Alpha virt. eigenvalues --    0.09785   0.10318   0.10877   0.12110   0.13166
 Alpha virt. eigenvalues --    0.13495   0.14956   0.15523   0.16043   0.18986

 Mulliken atomic charges:
              1
     1  H    0.130185
     2  C   -0.390476
     3  C   -0.294795
     4  H    0.110353
     5  H    0.141428
     6  H    0.124615
     7  Si   0.561404
     8  H    0.120469
     9  O   -0.594796
    10  O   -0.332432
    11  H   -0.049286
    12  H    0.312665
    13  C   -0.212800
    14  H    0.129596
    15  H    0.117902
    16  H    0.125967
 Sum of Mulliken atomic charges =   0.00000

 Dipole moment (field-independent basis, Debye):
    X=             -0.3000    Y=             -1.0777    Z=             -0.5650  Tot=              1.2533
 Quadrupole moment (field-independent basis, Debye-Ang):
   XX=            -40.7454   YY=            -50.2722   ZZ=            -42.8041
   XY=             -1.7917   XZ=             -0.2478   YZ=             -1.8226

 Normal termination of Gaussian 09 at Thu Aug  9 23:48:04 2018.
