 Gaussian 09, Revision C.01,
 Gaussian 09:  EM64L-G09RevC.01 23-Sep-2011

 --------------------------------------
 #SP PBE1PBE/Def2TZVP geom=connectivity
 --------------------------------------

 99/5=1,9=1/99;
 --------------
 Structure: 291
 --------------
 Charge =  0 Multiplicity = 1

                         Standard orientation:
 ---------------------------------------------------------------------
 Center     Atomic      Atomic             Coordinates (Angstroms)
 Number     Number       Type             X           Y           Z
 ---------------------------------------------------------------------
      1          1           0       -3.235935   -1.150187   -0.610750
      2          6           0       -2.238692   -0.715862   -0.718070
      3          6           0       -1.625837   -0.373348    0.639199
      4          1           0       -2.345754    0.171860   -1.348784
      5          1           0       -1.621096   -1.435212   -1.261503
      6          1           0       -2.259875    0.341631    1.175112
      7         14           0        0.090118    0.340865    0.551899
      8          1           0       -1.577146   -1.268291    1.268623
      9          8           0        0.168789    1.941490   -0.437856
     10          8           0        1.028745   -0.832998   -0.110740
     11          1           0        0.628649    0.731120    1.880224
     12          1           0       -0.183600    1.929109   -1.328354
     13          6           0        2.422726   -0.720301   -0.277384
     14          1           0        2.799844   -1.665838   -0.671005
     15          1           0        2.925089   -0.515852    0.675817
     16          1           0        2.678706    0.078683   -0.979658
 ---------------------------------------------------------------------

 SCF Done:  E(RPBE1PBE) =  -560.040157074     A.U. after   14 cycles

 The electronic state is 1-A.
 Alpha  occ. eigenvalues --  -66.27849 -19.21135 -19.18608 -10.26881 -10.21982
 Alpha  occ. eigenvalues --  -10.21812  -5.35145  -3.68684  -3.68570  -3.68401
 Alpha  occ. eigenvalues --   -1.04861  -0.97957  -0.78735  -0.71081  -0.64533
 Alpha  occ. eigenvalues --   -0.54991  -0.49547  -0.47338  -0.47024  -0.46094
 Alpha  occ. eigenvalues --   -0.43934  -0.41716  -0.38259  -0.36791  -0.35678
 Alpha  occ. eigenvalues --   -0.34077  -0.31502  -0.30718  -0.30047
 Alpha virt. eigenvalues --    0.01880   0.04559   0.05449   0.07582   0.08725
 Alpha virt. eigenvalues --    0.09365   0.10055   0.10645   0.11992   0.12857
 Alpha virt. eigenvalues --    0.13390   0.14691   0.15290   0.15866   0.18828

 Mulliken atomic charges:
              1
     1  H    0.130232
     2  C   -0.388894
     3  C   -0.290439
     4  H    0.112988
     5  H    0.140929
     6  H    0.126367
     7  Si   0.567414
     8  H    0.121827
     9  O   -0.622574
    10  O   -0.329137
    11  H   -0.042365
    12  H    0.310010
    13  C   -0.213763
    14  H    0.130097
    15  H    0.118156
    16  H    0.129151
 Sum of Mulliken atomic charges =   0.00000

 Dipole moment (field-independent basis, Debye):
    X=             -0.3107    Y=             -1.3689    Z=             -0.4172  Tot=              1.4644
 Quadrupole moment (field-independent basis, Debye-Ang):
   XX=            -40.5161   YY=            -50.8493   ZZ=            -42.7640
   XY=             -1.8767   XZ=             -0.2742   YZ=             -1.8867

 Normal termination of Gaussian 09 at Fri Aug 10 04:27:37 2018.
