 Gaussian 09, Revision C.01,
 Gaussian 09:  EM64L-G09RevC.01 23-Sep-2011

 --------------------------------------
 #SP PBE1PBE/Def2TZVP geom=connectivity
 --------------------------------------

 99/5=1,9=1/99;
 --------------
 Structure: 289
 --------------
 Charge =  0 Multiplicity = 1

                         Standard orientation:
 ---------------------------------------------------------------------
 Center     Atomic      Atomic             Coordinates (Angstroms)
 Number     Number       Type             X           Y           Z
 ---------------------------------------------------------------------
      1          1           0       -3.236031   -1.150689   -0.609039
      2          6           0       -2.238776   -0.716582   -0.717133
      3          6           0       -1.625891   -0.371714    0.639526
      4          1           0       -2.345821    0.170039   -1.349397
      5          1           0       -1.621209   -1.436900   -1.259316
      6          1           0       -2.259900    0.344220    1.174197
      7         14           0        0.090084    0.342295    0.550952
      8          1           0       -1.577217   -1.265557    1.270514
      9          8           0        0.169227    1.938216   -0.439365
     10          8           0        1.028667   -0.832754   -0.109647
     11          1           0        0.628647    0.734855    1.878584
     12          1           0       -0.184089    1.923891   -1.329736
     13          6           0        2.422649   -0.720390   -0.276509
     14          1           0        2.799732   -1.666625   -0.668481
     15          1           0        2.925032   -0.514290    0.676326
     16          1           0        2.678641    0.077357   -0.980182
 ---------------------------------------------------------------------

 SCF Done:  E(RPBE1PBE) =  -560.040705729     A.U. after   14 cycles

 The electronic state is 1-A.
 Alpha  occ. eigenvalues --  -66.27815 -19.21117 -19.18641 -10.26873 -10.21980
 Alpha  occ. eigenvalues --  -10.21800  -5.35115  -3.68653  -3.68540  -3.68371
 Alpha  occ. eigenvalues --   -1.04847  -0.98017  -0.78728  -0.71072  -0.64526
 Alpha  occ. eigenvalues --   -0.54996  -0.49576  -0.47330  -0.47017  -0.46095
 Alpha  occ. eigenvalues --   -0.43930  -0.41705  -0.38253  -0.36791  -0.35711
 Alpha  occ. eigenvalues --   -0.34083  -0.31509  -0.30722  -0.30062
 Alpha virt. eigenvalues --    0.01894   0.04578   0.05460   0.07589   0.08732
 Alpha virt. eigenvalues --    0.09384   0.10063   0.10654   0.11997   0.12871
 Alpha virt. eigenvalues --    0.13393   0.14704   0.15297   0.15872   0.18835

 Mulliken atomic charges:
              1
     1  H    0.130239
     2  C   -0.388954
     3  C   -0.290656
     4  H    0.112853
     5  H    0.140968
     6  H    0.126305
     7  Si   0.567075
     8  H    0.121789
     9  O   -0.621286
    10  O   -0.329297
    11  H   -0.042699
    12  H    0.310136
    13  C   -0.213707
    14  H    0.130069
    15  H    0.118142
    16  H    0.129022
 Sum of Mulliken atomic charges =   0.00000

 Dipole moment (field-independent basis, Debye):
    X=             -0.3128    Y=             -1.3562    Z=             -0.4235  Tot=              1.4549
 Quadrupole moment (field-independent basis, Debye-Ang):
   XX=            -40.5261   YY=            -50.8248   ZZ=            -42.7681
   XY=             -1.8769   XZ=             -0.2718   YZ=             -1.8815

 Normal termination of Gaussian 09 at Fri Aug 10 04:13:21 2018.
