 Gaussian 09, Revision C.01,
 Gaussian 09:  EM64L-G09RevC.01 23-Sep-2011

 --------------------------------------
 #SP PBE1PBE/Def2TZVP geom=connectivity
 --------------------------------------

 99/5=1,9=1/99;
 --------------
 Structure: 298
 --------------
 Charge =  0 Multiplicity = 1

                         Standard orientation:
 ---------------------------------------------------------------------
 Center     Atomic      Atomic             Coordinates (Angstroms)
 Number     Number       Type             X           Y           Z
 ---------------------------------------------------------------------
      1          1           0       -3.236314   -1.147506   -0.616655
      2          6           0       -2.238931   -0.712863   -0.721350
      3          6           0       -1.626108   -0.378431    0.637947
      4          1           0       -2.345665    0.178544   -1.346902
      5          1           0       -1.621495   -1.429225   -1.268896
      6          1           0       -2.259986    0.333610    1.177947
      7         14           0        0.090069    0.335765    0.554969
      8          1           0       -1.577747   -1.277033    1.262162
      9          8           0        0.169937    1.954068   -0.432471
     10          8           0        1.028411   -0.834506   -0.114393
     11          1           0        0.628585    0.718128    1.885594
     12          1           0       -0.182368    1.946971   -1.323060
     13          6           0        2.422442   -0.721259   -0.280243
     14          1           0        2.799317   -1.664603   -0.679319
     15          1           0        2.924772   -0.522506    0.674180
     16          1           0        2.678730    0.081719   -0.977834
 ---------------------------------------------------------------------

 SCF Done:  E(RPBE1PBE) =  -560.038106317     A.U. after   14 cycles

 The electronic state is 1-A.
 Alpha  occ. eigenvalues --  -66.27970 -19.21200 -19.18504 -10.26908 -10.21998
 Alpha  occ. eigenvalues --  -10.21865  -5.35256  -3.68796  -3.68680  -3.68509
 Alpha  occ. eigenvalues --   -1.04910  -0.97725  -0.78766  -0.71115  -0.64563
 Alpha  occ. eigenvalues --   -0.54969  -0.49424  -0.47366  -0.47047  -0.46099
 Alpha  occ. eigenvalues --   -0.43955  -0.41751  -0.38289  -0.36805  -0.35564
 Alpha  occ. eigenvalues --   -0.34063  -0.31478  -0.30708  -0.29990
 Alpha virt. eigenvalues --    0.01811   0.04492   0.05408   0.07555   0.08696
 Alpha virt. eigenvalues --    0.09287   0.10020   0.10608   0.11971   0.12809
 Alpha virt. eigenvalues --    0.13373   0.14640   0.15257   0.15841   0.18802

 Mulliken atomic charges:
              1
     1  H    0.130246
     2  C   -0.388630
     3  C   -0.289775
     4  H    0.113435
     5  H    0.140850
     6  H    0.126665
     7  Si   0.568103
     8  H    0.122056
     9  O   -0.626850
    10  O   -0.328574
    11  H   -0.041244
    12  H    0.309575
    13  C   -0.213931
    14  H    0.130187
    15  H    0.118210
    16  H    0.129678
 Sum of Mulliken atomic charges =   0.00000

 Dipole moment (field-independent basis, Debye):
    X=             -0.3126    Y=             -1.4199    Z=             -0.3944  Tot=              1.5065
 Quadrupole moment (field-independent basis, Debye-Ang):
   XX=            -40.4770   YY=            -50.9511   ZZ=            -42.7572
   XY=             -1.8921   XZ=             -0.2791   YZ=             -1.8993

 Normal termination of Gaussian 09 at Fri Aug 10 05:17:12 2018.
