 Gaussian 09, Revision C.01,
 Gaussian 09:  EM64L-G09RevC.01 23-Sep-2011

 --------------------------------------
 #SP PBE1PBE/Def2TZVP geom=connectivity
 --------------------------------------

 99/5=1,9=1/99;
 --------------
 Structure: 285
 --------------
 Charge =  0 Multiplicity = 1

                         Standard orientation:
 ---------------------------------------------------------------------
 Center     Atomic      Atomic             Coordinates (Angstroms)
 Number     Number       Type             X           Y           Z
 ---------------------------------------------------------------------
      1          1           0       -3.235633   -1.152735   -0.605311
      2          6           0       -2.238506   -0.718751   -0.715059
      3          6           0       -1.625606   -0.368798    0.640291
      4          1           0       -2.345842    0.165541   -1.350526
      5          1           0       -1.620786   -1.440863   -1.254676
      6          1           0       -2.259768    0.348898    1.172412
      7         14           0        0.090167    0.345351    0.548989
      8          1           0       -1.576639   -1.260333    1.274512
      9          8           0        0.167850    1.930980   -0.442419
     10          8           0        1.029017   -0.831830   -0.107419
     11          1           0        0.628728    0.742871    1.875146
     12          1           0       -0.184690    1.913638   -1.333798
     13          6           0        2.422955   -0.719693   -0.274799
     14          1           0        2.800265   -1.667241   -0.663367
     15          1           0        2.925358   -0.510001    0.677242
     16          1           0        2.678675    0.075566   -0.981382
 ---------------------------------------------------------------------

 SCF Done:  E(RPBE1PBE) =  -560.041881501     A.U. after   14 cycles

 The electronic state is 1-A.
 Alpha  occ. eigenvalues --  -66.27742 -19.21080 -19.18708 -10.26859 -10.21968
 Alpha  occ. eigenvalues --  -10.21765  -5.35048  -3.68585  -3.68473  -3.68305
 Alpha  occ. eigenvalues --   -1.04820  -0.98139  -0.78707  -0.71053  -0.64507
 Alpha  occ. eigenvalues --   -0.55010  -0.49647  -0.47314  -0.47004  -0.46088
 Alpha  occ. eigenvalues --   -0.43916  -0.41680  -0.38234  -0.36782  -0.35777
 Alpha  occ. eigenvalues --   -0.34095  -0.31529  -0.30725  -0.30083
 Alpha virt. eigenvalues --    0.01926   0.04618   0.05484   0.07604   0.08744
 Alpha virt. eigenvalues --    0.09430   0.10086   0.10676   0.12009   0.12900
 Alpha virt. eigenvalues --    0.13403   0.14733   0.15314   0.15889   0.18849

 Mulliken atomic charges:
              1
     1  H    0.130223
     2  C   -0.389127
     3  C   -0.291009
     4  H    0.112595
     5  H    0.140997
     6  H    0.126119
     7  Si   0.566683
     8  H    0.121631
     9  O   -0.618880
    10  O   -0.329620
    11  H   -0.043363
    12  H    0.310531
    13  C   -0.213616
    14  H    0.130024
    15  H    0.118125
    16  H    0.128686
 Sum of Mulliken atomic charges =   0.00000

 Dipole moment (field-independent basis, Debye):
    X=             -0.3088    Y=             -1.3261    Z=             -0.4392  Tot=              1.4307
 Quadrupole moment (field-independent basis, Debye-Ang):
   XX=            -40.5503   YY=            -50.7661   ZZ=            -42.7685
   XY=             -1.8640   XZ=             -0.2706   YZ=             -1.8785

 Normal termination of Gaussian 09 at Fri Aug 10 03:44:36 2018.
