 Gaussian 09, Revision C.01,
 Gaussian 09:  EM64L-G09RevC.01 23-Sep-2011

 --------------------------------------
 #SP PBE1PBE/Def2TZVP geom=connectivity
 --------------------------------------

 99/5=1,9=1/99;
 --------------
 Structure: 202
 --------------
 Charge =  0 Multiplicity = 1

                         Standard orientation:
 ---------------------------------------------------------------------
 Center     Atomic      Atomic             Coordinates (Angstroms)
 Number     Number       Type             X           Y           Z
 ---------------------------------------------------------------------
      1          1           0       -3.231780   -1.185504   -0.524021
      2          6           0       -2.236102   -0.758523   -0.668801
      3          6           0       -1.622829   -0.301425    0.654090
      4          1           0       -2.346821    0.072827   -1.371590
      5          1           0       -1.616753   -1.518937   -1.150867
      6          1           0       -2.258614    0.453950    1.129052
      7         14           0        0.090654    0.408435    0.504767
      8          1           0       -1.570459   -1.140266    1.356282
      9          8           0        0.156251    1.777606   -0.509692
     10          8           0        1.032398   -0.813859   -0.058422
     11          1           0        0.629413    0.910440    1.794919
     12          1           0       -0.197114    1.689456   -1.395514
     13          6           0        2.425807   -0.711078   -0.235907
     14          1           0        2.805598   -1.685084   -0.549379
     15          1           0        2.928582   -0.425799    0.696076
     16          1           0        2.678339    0.027007   -1.003076
 ---------------------------------------------------------------------

 SCF Done:  E(RPBE1PBE) =  -560.059652119     A.U. after   12 cycles

 The electronic state is 1-A.
 Alpha  occ. eigenvalues --  -66.26056 -19.20289 -19.19886 -10.26551 -10.21789
 Alpha  occ. eigenvalues --  -10.21100  -5.33588  -3.67113  -3.67008  -3.66861
 Alpha  occ. eigenvalues --   -1.04367  -1.01275  -0.78334  -0.70653  -0.64164
 Alpha  occ. eigenvalues --   -0.56023  -0.50945  -0.46959  -0.46713  -0.45995
 Alpha  occ. eigenvalues --   -0.43651  -0.41146  -0.38467  -0.37248  -0.36429
 Alpha  occ. eigenvalues --   -0.35143  -0.31919  -0.30568  -0.29885
 Alpha virt. eigenvalues --    0.02294   0.05342   0.05917   0.07913   0.08929
 Alpha virt. eigenvalues --    0.10067   0.10687   0.11210   0.12239   0.13439
 Alpha virt. eigenvalues --    0.13771   0.15161   0.15880   0.16332   0.19180

 Mulliken atomic charges:
              1
     1  H    0.130187
     2  C   -0.392360
     3  C   -0.301198
     4  H    0.107243
     5  H    0.142079
     6  H    0.122514
     7  Si   0.549264
     8  H    0.118833
     9  O   -0.555203
    10  O   -0.336530
    11  H   -0.058056
    12  H    0.316209
    13  C   -0.211770
    14  H    0.129052
    15  H    0.117664
    16  H    0.122073
 Sum of Mulliken atomic charges =   0.00000

 Dipole moment (field-independent basis, Debye):
    X=             -0.2891    Y=             -0.7547    Z=             -0.7635  Tot=              1.1118
 Quadrupole moment (field-independent basis, Debye-Ang):
   XX=            -41.0178   YY=            -49.6320   ZZ=            -42.8422
   XY=             -1.7000   XZ=             -0.2186   YZ=             -1.7715

 Normal termination of Gaussian 09 at Fri Aug 10 02:07:41 2018.
