 Gaussian 09, Revision C.01,
 Gaussian 09:  EM64L-G09RevC.01 23-Sep-2011

 --------------------------------------
 #SP PBE1PBE/Def2TZVP geom=connectivity
 --------------------------------------

 99/5=1,9=1/99;
 --------------
 Structure: 201
 --------------
 Charge =  0 Multiplicity = 1

                         Standard orientation:
 ---------------------------------------------------------------------
 Center     Atomic      Atomic             Coordinates (Angstroms)
 Number     Number       Type             X           Y           Z
 ---------------------------------------------------------------------
      1          1           0       -3.231620   -1.186099   -0.523012
      2          6           0       -2.235986   -0.759157   -0.668213
      3          6           0       -1.622710   -0.300805    0.654243
      4          1           0       -2.346806    0.071547   -1.371750
      5          1           0       -1.616584   -1.519950   -1.149612
      6          1           0       -2.258548    0.454941    1.128543
      7         14           0        0.090702    0.409078    0.504218
      8          1           0       -1.570239   -1.139005    1.357192
      9          8           0        0.155705    1.776208   -0.510241
     10          8           0        1.032540   -0.813639   -0.057897
     11          1           0        0.629459    0.912301    1.793897
     12          1           0       -0.197755    1.687056   -1.396953
     13          6           0        2.425933   -0.710889   -0.235523
     14          1           0        2.805803   -1.685144   -0.548125
     15          1           0        2.928714   -0.424721    0.696185
     16          1           0        2.678371    0.026525   -1.003368
 ---------------------------------------------------------------------

 SCF Done:  E(RPBE1PBE) =  -560.059744047     A.U. after   12 cycles

 The electronic state is 1-A.
 Alpha  occ. eigenvalues --  -66.26036 -19.20282 -19.19906 -10.26549 -10.21786
 Alpha  occ. eigenvalues --  -10.21091  -5.33571  -3.67096  -3.66992  -3.66844
 Alpha  occ. eigenvalues --   -1.04364  -1.01287  -0.78329  -0.70650  -0.64159
 Alpha  occ. eigenvalues --   -0.56030  -0.50949  -0.46956  -0.46711  -0.45993
 Alpha  occ. eigenvalues --   -0.43648  -0.41138  -0.38479  -0.37249  -0.36429
 Alpha  occ. eigenvalues --   -0.35158  -0.31919  -0.30565  -0.29879
 Alpha virt. eigenvalues --    0.02288   0.05348   0.05920   0.07916   0.08927
 Alpha virt. eigenvalues --    0.10070   0.10694   0.11216   0.12240   0.13441
 Alpha virt. eigenvalues --    0.13778   0.15163   0.15884   0.16338   0.19183

 Mulliken atomic charges:
              1
     1  H    0.130186
     2  C   -0.392404
     3  C   -0.301296
     4  H    0.107169
     5  H    0.142087
     6  H    0.122473
     7  Si   0.548998
     8  H    0.118789
     9  O   -0.554620
    10  O   -0.336599
    11  H   -0.058207
    12  H    0.316469
    13  C   -0.211760
    14  H    0.129047
    15  H    0.117668
    16  H    0.122000
 Sum of Mulliken atomic charges =   0.00000

 Dipole moment (field-independent basis, Debye):
    X=             -0.2878    Y=             -0.7496    Z=             -0.7685  Tot=              1.1115
 Quadrupole moment (field-independent basis, Debye-Ang):
   XX=            -41.0233   YY=            -49.6239   ZZ=            -42.8402
   XY=             -1.6974   XZ=             -0.2176   YZ=             -1.7728

 Normal termination of Gaussian 09 at Fri Aug 10 02:01:23 2018.
