 Gaussian 09, Revision C.01,
 Gaussian 09:  EM64L-G09RevC.01 23-Sep-2011

 --------------------------------------
 #SP PBE1PBE/Def2TZVP geom=connectivity
 --------------------------------------

 99/5=1,9=1/99;
 --------------
 Structure: 219
 --------------
 Charge =  0 Multiplicity = 1

                         Standard orientation:
 ---------------------------------------------------------------------
 Center     Atomic      Atomic             Coordinates (Angstroms)
 Number     Number       Type             X           Y           Z
 ---------------------------------------------------------------------
      1          1           0       -3.232649   -1.178602   -0.542110
      2          6           0       -2.236662   -0.749828   -0.679266
      3          6           0       -1.623447   -0.315967    0.651455
      4          1           0       -2.346667    0.093570   -1.367665
      5          1           0       -1.617669   -1.502226   -1.174196
      6          1           0       -2.258877    0.431525    1.139192
      7         14           0        0.090526    0.395263    0.514808
      8          1           0       -1.571795   -1.166807    1.339113
      9          8           0        0.158908    1.809789   -0.495525
     10          8           0        1.031642   -0.817756   -0.069105
     11          1           0        0.629264    0.874636    1.813548
     12          1           0       -0.194351    1.736980   -1.383809
     13          6           0        2.425162   -0.712825   -0.244442
     14          1           0        2.804417   -1.681533   -0.574541
     15          1           0        2.927873   -0.443957    0.692442
     16          1           0        2.678365    0.038198   -0.998725
 ---------------------------------------------------------------------

 SCF Done:  E(RPBE1PBE) =  -560.057279952     A.U. after   12 cycles

 The electronic state is 1-A.
 Alpha  occ. eigenvalues --  -66.26437 -19.20453 -19.19664 -10.26613 -10.21824
 Alpha  occ. eigenvalues --  -10.21241  -5.33905  -3.67432  -3.67328  -3.67178
 Alpha  occ. eigenvalues --   -1.04421  -1.00586  -0.78410  -0.70734  -0.64232
 Alpha  occ. eigenvalues --   -0.55685  -0.50737  -0.47031  -0.46771  -0.46011
 Alpha  occ. eigenvalues --   -0.43706  -0.41263  -0.38236  -0.37153  -0.36408
 Alpha  occ. eigenvalues --   -0.34808  -0.31894  -0.30630  -0.29988
 Alpha virt. eigenvalues --    0.02259   0.05206   0.05836   0.07850   0.08895
 Alpha virt. eigenvalues --    0.09987   0.10564   0.11086   0.12195   0.13374
 Alpha virt. eigenvalues --    0.13635   0.15101   0.15742   0.16216   0.19109

 Mulliken atomic charges:
              1
     1  H    0.130181
     2  C   -0.391692
     3  C   -0.298723
     4  H    0.108345
     5  H    0.141843
     6  H    0.123266
     7  Si   0.554281
     8  H    0.119427
     9  O   -0.570451
    10  O   -0.335025
    11  H   -0.054860
    12  H    0.315068
    13  C   -0.212098
    14  H    0.129236
    15  H    0.117740
    16  H    0.123462
 Sum of Mulliken atomic charges =   0.00000

 Dipole moment (field-independent basis, Debye):
    X=             -0.2936    Y=             -0.8667    Z=             -0.6911  Tot=              1.1467
 Quadrupole moment (field-independent basis, Debye-Ang):
   XX=            -40.9231   YY=            -49.8554   ZZ=            -42.8276
   XY=             -1.7328   XZ=             -0.2293   YZ=             -1.7887

 Normal termination of Gaussian 09 at Fri Aug 10 03:56:03 2018.
