 Gaussian 09, Revision C.01,
 Gaussian 09:  EM64L-G09RevC.01 23-Sep-2011

 --------------------------------------
 #SP PBE1PBE/Def2TZVP geom=connectivity
 --------------------------------------

 99/5=1,9=1/99;
 --------------
 Structure: 249
 --------------
 Charge =  0 Multiplicity = 1

                         Standard orientation:
 ---------------------------------------------------------------------
 Center     Atomic      Atomic             Coordinates (Angstroms)
 Number     Number       Type             X           Y           Z
 ---------------------------------------------------------------------
      1          1           0       -3.233836   -1.166976   -0.572015
      2          6           0       -2.237380   -0.735385   -0.696334
      3          6           0       -1.624312   -0.340745    0.646608
      4          1           0       -2.346286    0.127655   -1.360122
      5          1           0       -1.618900   -1.473770   -1.212551
      6          1           0       -2.259231    0.392961    1.155486
      7         14           0        0.090400    0.372473    0.531241
      8          1           0       -1.573765   -1.211145    1.309417
      9          8           0        0.162418    1.864921   -0.471245
     10          8           0        1.030599   -0.824083   -0.087101
     11          1           0        0.629048    0.813602    1.843501
     12          1           0       -0.190536    1.818148   -1.361400
     13          6           0        2.424293   -0.715482   -0.258785
     14          1           0        2.802758   -1.674617   -0.616583
     15          1           0        2.926866   -0.474281    0.685674
     16          1           0        2.678534    0.056772   -0.990956
 ---------------------------------------------------------------------

 SCF Done:  E(RPBE1PBE) =  -560.051316962     A.U. after   13 cycles

 The electronic state is 1-A.
 Alpha  occ. eigenvalues --  -66.27058 -19.20737 -19.19241 -10.26723 -10.21887
 Alpha  occ. eigenvalues --  -10.21480  -5.34440  -3.67969  -3.67865  -3.67707
 Alpha  occ. eigenvalues --   -1.04581  -0.99439  -0.78543  -0.70877  -0.64354
 Alpha  occ. eigenvalues --   -0.55274  -0.50289  -0.47161  -0.46876  -0.46046
 Alpha  occ. eigenvalues --   -0.43802  -0.41463  -0.38133  -0.36859  -0.36292
 Alpha  occ. eigenvalues --   -0.34358  -0.31759  -0.30706  -0.30116
 Alpha virt. eigenvalues --    0.02161   0.04952   0.05685   0.07740   0.08838
 Alpha virt. eigenvalues --    0.09795   0.10328   0.10885   0.12114   0.13175
 Alpha virt. eigenvalues --    0.13497   0.14963   0.15526   0.16050   0.18990

 Mulliken atomic charges:
              1
     1  H    0.130183
     2  C   -0.390532
     3  C   -0.294913
     4  H    0.110263
     5  H    0.141444
     6  H    0.124556
     7  Si   0.561171
     8  H    0.120423
     9  O   -0.594081
    10  O   -0.332532
    11  H   -0.049485
    12  H    0.312933
    13  C   -0.212764
    14  H    0.129579
    15  H    0.117892
    16  H    0.125862
 Sum of Mulliken atomic charges =   0.00000

 Dipole moment (field-independent basis, Debye):
    X=             -0.2997    Y=             -1.0688    Z=             -0.5705  Tot=              1.2481
 Quadrupole moment (field-independent basis, Debye-Ang):
   XX=            -40.7543   YY=            -50.2558   ZZ=            -42.8024
   XY=             -1.7890   XZ=             -0.2468   YZ=             -1.8230

 Normal termination of Gaussian 09 at Thu Aug  9 23:41:14 2018.
