 Gaussian 09, Revision C.01,
 Gaussian 09:  EM64L-G09RevC.01 23-Sep-2011

 --------------------------------------
 #SP PBE1PBE/Def2TZVP geom=connectivity
 --------------------------------------

 99/5=1,9=1/99;
 --------------
 Structure: 200
 --------------
 Charge =  0 Multiplicity = 1

                         Standard orientation:
 ---------------------------------------------------------------------
 Center     Atomic      Atomic             Coordinates (Angstroms)
 Number     Number       Type             X           Y           Z
 ---------------------------------------------------------------------
      1          1           0       -3.231877   -1.186008   -0.521980
      2          6           0       -2.236188   -0.759347   -0.667626
      3          6           0       -1.622882   -0.299632    0.654344
      4          1           0       -2.346891    0.070604   -1.372068
      5          1           0       -1.616869   -1.520739   -1.148184
      6          1           0       -2.258636    0.456707    1.127808
      7         14           0        0.090621    0.409877    0.503581
      8          1           0       -1.570527   -1.137074    1.358205
      9          8           0        0.156695    1.774254   -0.511128
     10          8           0        1.032319   -0.813567   -0.057185
     11          1           0        0.629414    0.914435    1.792722
     12          1           0       -0.197668    1.683790   -1.397617
     13          6           0        2.425729   -0.711181   -0.234895
     14          1           0        2.805485   -1.685822   -0.546430
     15          1           0        2.928527   -0.424062    0.696511
     16          1           0        2.678272    0.025366   -1.003536
 ---------------------------------------------------------------------

 SCF Done:  E(RPBE1PBE) =  -560.059855048     A.U. after   12 cycles

 The electronic state is 1-A.
 Alpha  occ. eigenvalues --  -66.26012 -19.20270 -19.19923 -10.26543 -10.21787
 Alpha  occ. eigenvalues --  -10.21086  -5.33551  -3.67076  -3.66971  -3.66825
 Alpha  occ. eigenvalues --   -1.04361  -1.01323  -0.78327  -0.70644  -0.64157
 Alpha  occ. eigenvalues --   -0.56045  -0.50955  -0.46950  -0.46706  -0.45996
 Alpha  occ. eigenvalues --   -0.43646  -0.41131  -0.38502  -0.37251  -0.36433
 Alpha  occ. eigenvalues --   -0.35178  -0.31917  -0.30561  -0.29874
 Alpha virt. eigenvalues --    0.02285   0.05356   0.05925   0.07920   0.08928
 Alpha virt. eigenvalues --    0.10074   0.10698   0.11224   0.12242   0.13443
 Alpha virt. eigenvalues --    0.13788   0.15166   0.15888   0.16343   0.19187

 Mulliken atomic charges:
              1
     1  H    0.130198
     2  C   -0.392433
     3  C   -0.301488
     4  H    0.107100
     5  H    0.142123
     6  H    0.122448
     7  Si   0.548524
     8  H    0.118791
     9  O   -0.553598
    10  O   -0.336702
    11  H   -0.058426
    12  H    0.316570
    13  C   -0.211717
    14  H    0.129026
    15  H    0.117655
    16  H    0.121927
 Sum of Mulliken atomic charges =   0.00000

 Dipole moment (field-independent basis, Debye):
    X=             -0.2910    Y=             -0.7438    Z=             -0.7726  Tot=              1.1112
 Quadrupole moment (field-independent basis, Debye-Ang):
   XX=            -41.0291   YY=            -49.6121   ZZ=            -42.8428
   XY=             -1.6996   XZ=             -0.2161   YZ=             -1.7703

 Normal termination of Gaussian 09 at Fri Aug 10 01:55:04 2018.
