 Gaussian 09, Revision C.01,
 Gaussian 09:  EM64L-G09RevC.01 23-Sep-2011

 --------------------------------------
 #SP PBE1PBE/Def2TZVP geom=connectivity
 --------------------------------------

 99/5=1,9=1/99;
 --------------
 Structure: 204
 --------------
 Charge =  0 Multiplicity = 1

                         Standard orientation:
 ---------------------------------------------------------------------
 Center     Atomic      Atomic             Coordinates (Angstroms)
 Number     Number       Type             X           Y           Z
 ---------------------------------------------------------------------
      1          1           0       -3.231971   -1.184465   -0.526334
      2          6           0       -2.236235   -0.757292   -0.670143
      3          6           0       -1.622967   -0.303137    0.653765
      4          1           0       -2.346820    0.075593   -1.371133
      5          1           0       -1.616956   -1.516734   -1.153828
      6          1           0       -2.258682    0.451283    1.130334
      7         14           0        0.090609    0.406837    0.506059
      8          1           0       -1.570731   -1.143505    1.354138
      9          8           0        0.156879    1.781364   -0.508025
     10          8           0        1.032231   -0.814348   -0.059736
     11          1           0        0.629369    0.905979    1.797320
     12          1           0       -0.196457    1.695178   -1.394052
     13          6           0        2.425660   -0.711350   -0.236935
     14          1           0        2.805347   -1.684721   -0.552500
     15          1           0        2.928427   -0.428154    0.695688
     16          1           0        2.678317    0.028366   -1.002490
 ---------------------------------------------------------------------

 SCF Done:  E(RPBE1PBE) =  -560.059416116     A.U. after   12 cycles

 The electronic state is 1-A.
 Alpha  occ. eigenvalues --  -66.26103 -19.20307 -19.19859 -10.26558 -10.21793
 Alpha  occ. eigenvalues --  -10.21117  -5.33626  -3.67152  -3.67047  -3.66900
 Alpha  occ. eigenvalues --   -1.04370  -1.01195  -0.78343  -0.70662  -0.64172
 Alpha  occ. eigenvalues --   -0.55980  -0.50922  -0.46967  -0.46719  -0.45997
 Alpha  occ. eigenvalues --   -0.43658  -0.41161  -0.38432  -0.37243  -0.36426
 Alpha  occ. eigenvalues --   -0.35102  -0.31918  -0.30576  -0.29899
 Alpha virt. eigenvalues --    0.02292   0.05326   0.05908   0.07905   0.08925
 Alpha virt. eigenvalues --    0.10059   0.10673   0.11195   0.12234   0.13433
 Alpha virt. eigenvalues --    0.13753   0.15154   0.15863   0.16317   0.19171

 Mulliken atomic charges:
              1
     1  H    0.130187
     2  C   -0.392279
     3  C   -0.300893
     4  H    0.107380
     5  H    0.142053
     6  H    0.122603
     7  Si   0.549911
     8  H    0.118911
     9  O   -0.557086
    10  O   -0.336350
    11  H   -0.057664
    12  H    0.316050
    13  C   -0.211800
    14  H    0.129070
    15  H    0.117667
    16  H    0.122239
 Sum of Mulliken atomic charges =   0.00000

 Dipole moment (field-independent basis, Debye):
    X=             -0.2903    Y=             -0.7677    Z=             -0.7542  Tot=              1.1146
 Quadrupole moment (field-independent basis, Debye-Ang):
   XX=            -41.0070   YY=            -49.6573   ZZ=            -42.8406
   XY=             -1.7044   XZ=             -0.2201   YZ=             -1.7731

 Normal termination of Gaussian 09 at Fri Aug 10 02:20:33 2018.
