 Gaussian 09, Revision C.01,
 Gaussian 09:  EM64L-G09RevC.01 23-Sep-2011

 --------------------------------------
 #SP PBE1PBE/Def2TZVP geom=connectivity
 --------------------------------------

 99/5=1,9=1/99;
 --------------
 Structure: 268
 --------------
 Charge =  0 Multiplicity = 1

                         Standard orientation:
 ---------------------------------------------------------------------
 Center     Atomic      Atomic             Coordinates (Angstroms)
 Number     Number       Type             X           Y           Z
 ---------------------------------------------------------------------
      1          1           0       -3.234990   -1.158988   -0.590177
      2          6           0       -2.238129   -0.726133   -0.706598
      3          6           0       -1.625140   -0.355681    0.643251
      4          1           0       -2.346095    0.148532   -1.355149
      5          1           0       -1.620119   -1.455862   -1.235530
      6          1           0       -2.259591    0.369512    1.164758
      7         14           0        0.090214    0.357984    0.540941
      8          1           0       -1.575540   -1.237638    1.290677
      9          8           0        0.165997    1.900090   -0.455824
     10          8           0        1.029584   -0.828325   -0.098058
     11          1           0        0.628832    0.775522    1.860909
     12          1           0       -0.186721    1.869270   -1.346767
     13          6           0        2.423424   -0.717918   -0.267396
     14          1           0        2.801183   -1.670941   -0.641884
     15          1           0        2.925910   -0.493783    0.681303
     16          1           0        2.678549    0.066866   -0.985808
 ---------------------------------------------------------------------

 SCF Done:  E(RPBE1PBE) =  -560.046545185     A.U. after   13 cycles

 The electronic state is 1-A.
 Alpha  occ. eigenvalues --  -66.27430 -19.20919 -19.18960 -10.26794 -10.21931
 Alpha  occ. eigenvalues --  -10.21634  -5.34768  -3.68301  -3.68193  -3.68030
 Alpha  occ. eigenvalues --   -1.04703  -0.98735  -0.78631  -0.70969  -0.64436
 Alpha  occ. eigenvalues --   -0.55106  -0.49953  -0.47243  -0.46944  -0.46071
 Alpha  occ. eigenvalues --   -0.43864  -0.41582  -0.38174  -0.36780  -0.36054
 Alpha  occ. eigenvalues --   -0.34182  -0.31630  -0.30728  -0.30136
 Alpha virt. eigenvalues --    0.02054   0.04778   0.05581   0.07668   0.08793
 Alpha virt. eigenvalues --    0.09618   0.10187   0.10770   0.12059   0.13027
 Alpha virt. eigenvalues --    0.13444   0.14848   0.15403   0.15959   0.18914

 Mulliken atomic charges:
              1
     1  H    0.130203
     2  C   -0.389781
     3  C   -0.292765
     4  H    0.111514
     5  H    0.141207
     6  H    0.125394
     7  Si   0.564396
     8  H    0.121085
     9  O   -0.607674
    10  O   -0.330991
    11  H   -0.046199
    12  H    0.311625
    13  C   -0.213196
    14  H    0.129807
    15  H    0.118005
    16  H    0.127371
 Sum of Mulliken atomic charges =   0.00000

 Dipole moment (field-independent basis, Debye):
    X=             -0.3059    Y=             -1.2041    Z=             -0.4989  Tot=              1.3388
 Quadrupole moment (field-independent basis, Debye-Ang):
   XX=            -40.6469   YY=            -50.5231   ZZ=            -42.7850
   XY=             -1.8302   XZ=             -0.2601   YZ=             -1.8510

 Normal termination of Gaussian 09 at Fri Aug 10 01:51:30 2018.
