 Gaussian 09, Revision C.01,
 Gaussian 09:  EM64L-G09RevC.01 23-Sep-2011

 --------------------------------------
 #SP PBE1PBE/Def2TZVP geom=connectivity
 --------------------------------------

 99/5=1,9=1/99;
 --------------
 Structure: 242
 --------------
 Charge =  0 Multiplicity = 1

                         Standard orientation:
 ---------------------------------------------------------------------
 Center     Atomic      Atomic             Coordinates (Angstroms)
 Number     Number       Type             X           Y           Z
 ---------------------------------------------------------------------
      1          1           0       -3.233791   -1.169191   -0.565500
      2          6           0       -2.237387   -0.738306   -0.692645
      3          6           0       -1.624270   -0.335015    0.647702
      4          1           0       -2.346424    0.120456   -1.361938
      5          1           0       -1.618867   -1.479919   -1.204165
      6          1           0       -2.259230    0.401869    1.151914
      7         14           0        0.090362    0.377620    0.527658
      8          1           0       -1.573593   -1.201150    1.316067
      9          8           0        0.162486    1.852412   -0.476874
     10          8           0        1.030640   -0.822776   -0.083074
     11          1           0        0.629052    0.827195    1.837031
     12          1           0       -0.191362    1.799640   -1.365583
     13          6           0        2.424313   -0.715138   -0.255541
     14          1           0        2.802850   -1.676505   -0.607216
     15          1           0        2.926923   -0.467845    0.687321
     16          1           0        2.678428    0.052439   -0.992657
 ---------------------------------------------------------------------

 SCF Done:  E(RPBE1PBE) =  -560.052839939     A.U. after   13 cycles

 The electronic state is 1-A.
 Alpha  occ. eigenvalues --  -66.26923 -19.20672 -19.19333 -10.26696 -10.21875
 Alpha  occ. eigenvalues --  -10.21430  -5.34322  -3.67851  -3.67747  -3.67591
 Alpha  occ. eigenvalues --   -1.04540  -0.99711  -0.78516  -0.70844  -0.64328
 Alpha  occ. eigenvalues --   -0.55353  -0.50402  -0.47131  -0.46851  -0.46041
 Alpha  occ. eigenvalues --   -0.43782  -0.41421  -0.38136  -0.36921  -0.36344
 Alpha  occ. eigenvalues --   -0.34442  -0.31798  -0.30695  -0.30098
 Alpha virt. eigenvalues --    0.02193   0.05012   0.05720   0.07765   0.08855
 Alpha virt. eigenvalues --    0.09847   0.10379   0.10928   0.12133   0.13227
 Alpha virt. eigenvalues --    0.13520   0.14999   0.15575   0.16083   0.19017

 Mulliken atomic charges:
              1
     1  H    0.130191
     2  C   -0.390775
     3  C   -0.295782
     4  H    0.109831
     5  H    0.141553
     6  H    0.124284
     7  Si   0.559703
     8  H    0.120230
     9  O   -0.588772
    10  O   -0.333093
    11  H   -0.050698
    12  H    0.313242
    13  C   -0.212597
    14  H    0.129492
    15  H    0.117845
    16  H    0.125345
 Sum of Mulliken atomic charges =   0.00000

 Dipole moment (field-independent basis, Debye):
    X=             -0.3015    Y=             -1.0230    Z=             -0.5952  Tot=              1.2213
 Quadrupole moment (field-independent basis, Debye-Ang):
   XX=            -40.7909   YY=            -50.1636   ZZ=            -42.8128
   XY=             -1.7802   XZ=             -0.2417   YZ=             -1.8104

 Normal termination of Gaussian 09 at Thu Aug  9 22:53:04 2018.
