 Gaussian 09, Revision C.01,
 Gaussian 09:  EM64L-G09RevC.01 23-Sep-2011

 --------------------------------------
 #SP PBE1PBE/Def2TZVP geom=connectivity
 --------------------------------------

 99/5=1,9=1/99;
 --------------
 Structure: 214
 --------------
 Charge =  0 Multiplicity = 1

                         Standard orientation:
 ---------------------------------------------------------------------
 Center     Atomic      Atomic             Coordinates (Angstroms)
 Number     Number       Type             X           Y           Z
 ---------------------------------------------------------------------
      1          1           0       -3.232488   -1.180359   -0.537091
      2          6           0       -2.236569   -0.752111   -0.676367
      3          6           0       -1.623330   -0.311783    0.652217
      4          1           0       -2.346734    0.087957   -1.368799
      5          1           0       -1.617503   -1.506791   -1.167720
      6          1           0       -2.258832    0.437953    1.136401
      7         14           0        0.090536    0.399019    0.512049
      8          1           0       -1.571517   -1.159305    1.343947
      9          8           0        0.158545    1.800485   -0.499710
     10          8           0        1.031782   -0.816659   -0.066095
     11          1           0        0.629289    0.884694    1.808438
     12          1           0       -0.195600    1.723128   -1.386498
     13          6           0        2.425278   -0.712379   -0.242023
     14          1           0        2.804645   -1.682608   -0.567493
     15          1           0        2.928010   -0.438947    0.693528
     16          1           0        2.678329    0.035050   -0.999918
 ---------------------------------------------------------------------

 SCF Done:  E(RPBE1PBE) =  -560.058048069     A.U. after   12 cycles

 The electronic state is 1-A.
 Alpha  occ. eigenvalues --  -66.26331 -19.20405 -19.19725 -10.26594 -10.21816
 Alpha  occ. eigenvalues --  -10.21203  -5.33816  -3.67342  -3.67238  -3.67089
 Alpha  occ. eigenvalues --   -1.04401  -1.00793  -0.78390  -0.70710  -0.64214
 Alpha  occ. eigenvalues --   -0.55776  -0.50802  -0.47010  -0.46754  -0.46009
 Alpha  occ. eigenvalues --   -0.43691  -0.41232  -0.38291  -0.37192  -0.36415
 Alpha  occ. eigenvalues --   -0.34900  -0.31905  -0.30614  -0.29962
 Alpha virt. eigenvalues --    0.02274   0.05246   0.05860   0.07868   0.08907
 Alpha virt. eigenvalues --    0.10011   0.10599   0.11121   0.12207   0.13396
 Alpha virt. eigenvalues --    0.13669   0.15120   0.15784   0.16247   0.19130

 Mulliken atomic charges:
              1
     1  H    0.130190
     2  C   -0.391867
     3  C   -0.299454
     4  H    0.108022
     5  H    0.141927
     6  H    0.123063
     7  Si   0.552863
     8  H    0.119276
     9  O   -0.566068
    10  O   -0.335449
    11  H   -0.055766
    12  H    0.315288
    13  C   -0.211998
    14  H    0.129177
    15  H    0.117708
    16  H    0.123088
 Sum of Mulliken atomic charges =   0.00000

 Dipole moment (field-independent basis, Debye):
    X=             -0.2946    Y=             -0.8347    Z=             -0.7098  Tot=              1.1346
 Quadrupole moment (field-independent basis, Debye-Ang):
   XX=            -40.9486   YY=            -49.7908   ZZ=            -42.8353
   XY=             -1.7258   XZ=             -0.2244   YZ=             -1.7798

 Normal termination of Gaussian 09 at Fri Aug 10 03:24:03 2018.
