 Gaussian 09, Revision C.01,
 Gaussian 09:  EM64L-G09RevC.01 23-Sep-2011

 --------------------------------------
 #SP PBE1PBE/Def2TZVP geom=connectivity
 --------------------------------------

 99/5=1,9=1/99;
 --------------
 Structure: 295
 --------------
 Charge =  0 Multiplicity = 1

                         Standard orientation:
 ---------------------------------------------------------------------
 Center     Atomic      Atomic             Coordinates (Angstroms)
 Number     Number       Type             X           Y           Z
 ---------------------------------------------------------------------
      1          1           0       -3.236400   -1.148299   -0.614069
      2          6           0       -2.239014   -0.713943   -0.719931
      3          6           0       -1.626160   -0.375933    0.638466
      4          1           0       -2.345752    0.175811   -1.347831
      5          1           0       -1.621597   -1.431755   -1.265599
      6          1           0       -2.260019    0.337537    1.176598
      7         14           0        0.090023    0.338024    0.553568
      8          1           0       -1.577795   -1.272886    1.265048
      9          8           0        0.170288    1.948592   -0.434735
     10          8           0        1.028339   -0.834019   -0.112723
     11          1           0        0.628570    0.723890    1.883168
     12          1           0       -0.182106    1.939068   -1.326290
     13          6           0        2.422368   -0.721225   -0.278900
     14          1           0        2.799224   -1.665623   -0.675493
     15          1           0        2.924719   -0.519960    0.674984
     16          1           0        2.678649    0.079907   -0.978613
 ---------------------------------------------------------------------

 SCF Done:  E(RPBE1PBE) =  -560.039023143     A.U. after   14 cycles

 The electronic state is 1-A.
 Alpha  occ. eigenvalues --  -66.27915 -19.21170 -19.18561 -10.26895 -10.21991
 Alpha  occ. eigenvalues --  -10.21843  -5.35206  -3.68745  -3.68630  -3.68460
 Alpha  occ. eigenvalues --   -1.04887  -0.97805  -0.78753  -0.71099  -0.64550
 Alpha  occ. eigenvalues --   -0.54973  -0.49469  -0.47352  -0.47036  -0.46097
 Alpha  occ. eigenvalues --   -0.43946  -0.41733  -0.38275  -0.36799  -0.35613
 Alpha  occ. eigenvalues --   -0.34068  -0.31486  -0.30712  -0.30016
 Alpha virt. eigenvalues --    0.01836   0.04521   0.05427   0.07567   0.08707
 Alpha virt. eigenvalues --    0.09319   0.10035   0.10624   0.11980   0.12831
 Alpha virt. eigenvalues --    0.13379   0.14663   0.15265   0.15851   0.18811

 Mulliken atomic charges:
              1
     1  H    0.130243
     2  C   -0.388749
     3  C   -0.290055
     4  H    0.113238
     5  H    0.140890
     6  H    0.126538
     7  Si   0.567736
     8  H    0.121969
     9  O   -0.625063
    10  O   -0.328834
    11  H   -0.041755
    12  H    0.309915
    13  C   -0.213835
    14  H    0.130142
    15  H    0.118185
    16  H    0.129434
 Sum of Mulliken atomic charges =   0.00000

 Dipole moment (field-independent basis, Debye):
    X=             -0.3132    Y=             -1.3973    Z=             -0.4058  Tot=              1.4883
 Quadrupole moment (field-independent basis, Debye-Ang):
   XX=            -40.4969   YY=            -50.9067   ZZ=            -42.7584
   XY=             -1.8875   XZ=             -0.2780   YZ=             -1.8961

 Normal termination of Gaussian 09 at Fri Aug 10 04:56:00 2018.
