 Gaussian 09, Revision C.01,
 Gaussian 09:  EM64L-G09RevC.01 23-Sep-2011

 --------------------------------------
 #SP PBE1PBE/Def2TZVP geom=connectivity
 --------------------------------------

 99/5=1,9=1/99;
 --------------
 Structure: 266
 --------------
 Charge =  0 Multiplicity = 1

                         Standard orientation:
 ---------------------------------------------------------------------
 Center     Atomic      Atomic             Coordinates (Angstroms)
 Number     Number       Type             X           Y           Z
 ---------------------------------------------------------------------
      1          1           0       -3.234782   -1.160061   -0.588168
      2          6           0       -2.237986   -0.727292   -0.705469
      3          6           0       -1.624989   -0.354150    0.643636
      4          1           0       -2.346103    0.146105   -1.355702
      5          1           0       -1.619898   -1.457954   -1.233020
      6          1           0       -2.259518    0.371959    1.163771
      7         14           0        0.090261    0.359555    0.539873
      8          1           0       -1.575237   -1.234850    1.292760
      9          8           0        0.165315    1.896429   -0.457465
     10          8           0        1.029768   -0.827855   -0.096879
     11          1           0        0.628880    0.779713    1.859008
     12          1           0       -0.187439    1.863841   -1.348332
     13          6           0        2.423585   -0.717581   -0.266492
     14          1           0        2.801460   -1.671271   -0.639157
     15          1           0        2.926082   -0.491546    0.681751
     16          1           0        2.678569    0.065851   -0.986427
 ---------------------------------------------------------------------

 SCF Done:  E(RPBE1PBE) =  -560.047083812     A.U. after   13 cycles

 The electronic state is 1-A.
 Alpha  occ. eigenvalues --  -66.27391 -19.20900 -19.18991 -10.26787 -10.21926
 Alpha  occ. eigenvalues --  -10.21617  -5.34733  -3.68266  -3.68159  -3.67996
 Alpha  occ. eigenvalues --   -1.04691  -0.98809  -0.78622  -0.70960  -0.64427
 Alpha  occ. eigenvalues --   -0.55120  -0.49991  -0.47235  -0.46937  -0.46068
 Alpha  occ. eigenvalues --   -0.43857  -0.41570  -0.38168  -0.36783  -0.36085
 Alpha  occ. eigenvalues --   -0.34197  -0.31644  -0.30727  -0.30137
 Alpha virt. eigenvalues --    0.02067   0.04797   0.05592   0.07676   0.08799
 Alpha virt. eigenvalues --    0.09639   0.10201   0.10782   0.12065   0.13043
 Alpha virt. eigenvalues --    0.13450   0.14861   0.15416   0.15968   0.18922

 Mulliken atomic charges:
              1
     1  H    0.130200
     2  C   -0.389862
     3  C   -0.292984
     4  H    0.111377
     5  H    0.141230
     6  H    0.125306
     7  Si   0.564088
     8  H    0.121010
     9  O   -0.606258
    10  O   -0.331152
    11  H   -0.046550
    12  H    0.311758
    13  C   -0.213155
    14  H    0.129785
    15  H    0.117997
    16  H    0.127212
 Sum of Mulliken atomic charges =   0.00000

 Dipole moment (field-independent basis, Debye):
    X=             -0.3047    Y=             -1.1897    Z=             -0.5066  Tot=              1.3285
 Quadrupole moment (field-independent basis, Debye-Ang):
   XX=            -40.6577   YY=            -50.4952   ZZ=            -42.7871
   XY=             -1.8251   XZ=             -0.2585   YZ=             -1.8478

 Normal termination of Gaussian 09 at Fri Aug 10 01:38:02 2018.
