 Gaussian 09, Revision C.01,
 Gaussian 09:  EM64L-G09RevC.01 23-Sep-2011

 --------------------------------------
 #SP PBE1PBE/Def2TZVP geom=connectivity
 --------------------------------------

 99/5=1,9=1/99;
 --------------
 Structure: 273
 --------------
 Charge =  0 Multiplicity = 1

                         Standard orientation:
 ---------------------------------------------------------------------
 Center     Atomic      Atomic             Coordinates (Angstroms)
 Number     Number       Type             X           Y           Z
 ---------------------------------------------------------------------
      1          1           0       -3.235111   -1.157092   -0.594929
      2          6           0       -2.238187   -0.723822   -0.709251
      3          6           0       -1.625238   -0.359797    0.642364
      4          1           0       -2.346000    0.153896   -1.353690
      5          1           0       -1.620236   -1.451135   -1.241568
      6          1           0       -2.259630    0.363017    1.167234
      7         14           0        0.090214    0.354122    0.543520
      8          1           0       -1.575792   -1.244794    1.285640
      9          8           0        0.166322    1.909277   -0.451863
     10          8           0        1.029474   -0.829290   -0.100990
     11          1           0        0.628800    0.765382    1.865470
     12          1           0       -0.186273    1.882791   -1.341971
     13          6           0        2.423339   -0.718266   -0.269718
     14          1           0        2.801000   -1.669566   -0.648658
     15          1           0        2.925792   -0.498657    0.680057
     16          1           0        2.678609    0.069854   -0.984416
 ---------------------------------------------------------------------

 SCF Done:  E(RPBE1PBE) =  -560.045172461     A.U. after   13 cycles

 The electronic state is 1-A.
 Alpha  occ. eigenvalues --  -66.27527 -19.20967 -19.18874 -10.26813 -10.21942
 Alpha  occ. eigenvalues --  -10.21674  -5.34855  -3.68389  -3.68280  -3.68116
 Alpha  occ. eigenvalues --   -1.04738  -0.98574  -0.78654  -0.70995  -0.64457
 Alpha  occ. eigenvalues --   -0.55078  -0.49869  -0.47265  -0.46962  -0.46077
 Alpha  occ. eigenvalues --   -0.43880  -0.41615  -0.38191  -0.36776  -0.35974
 Alpha  occ. eigenvalues --   -0.34151  -0.31597  -0.30729  -0.30129
 Alpha virt. eigenvalues --    0.02025   0.04730   0.05551   0.07649   0.08783
 Alpha virt. eigenvalues --    0.09565   0.10154   0.10741   0.12045   0.12987
 Alpha virt. eigenvalues --    0.13433   0.14814   0.15381   0.15937   0.18895

 Mulliken atomic charges:
              1
     1  H    0.130207
     2  C   -0.389578
     3  C   -0.292237
     4  H    0.111848
     5  H    0.141143
     6  H    0.125610
     7  Si   0.565198
     8  H    0.121248
     9  O   -0.611032
    10  O   -0.330574
    11  H   -0.045320
    12  H    0.311134
    13  C   -0.213331
    14  H    0.129872
    15  H    0.118035
    16  H    0.127780
 Sum of Mulliken atomic charges =   0.00000

 Dipole moment (field-independent basis, Debye):
    X=             -0.3066    Y=             -1.2405    Z=             -0.4790  Tot=              1.3646
 Quadrupole moment (field-independent basis, Debye-Ang):
   XX=            -40.6162   YY=            -50.5941   ZZ=            -42.7819
   XY=             -1.8398   XZ=             -0.2628   YZ=             -1.8567

 Normal termination of Gaussian 09 at Fri Aug 10 02:24:37 2018.
