 Gaussian 09, Revision C.01,
 Gaussian 09:  EM64L-G09RevC.01 23-Sep-2011

 --------------------------------------
 #SP PBE1PBE/Def2TZVP geom=connectivity
 --------------------------------------

 99/5=1,9=1/99;
 --------------
 Structure: 233
 --------------
 Charge =  0 Multiplicity = 1

                         Standard orientation:
 ---------------------------------------------------------------------
 Center     Atomic      Atomic             Coordinates (Angstroms)
 Number     Number       Type             X           Y           Z
 ---------------------------------------------------------------------
      1          1           0       -3.233282   -1.172914   -0.556597
      2          6           0       -2.237056   -0.742764   -0.687567
      3          6           0       -1.623912   -0.327766    0.649189
      4          1           0       -2.346502    0.110187   -1.364184
      5          1           0       -1.618327   -1.488505   -1.192794
      6          1           0       -2.259079    0.413178    1.147150
      7         14           0        0.090439    0.384452    0.522806
      8          1           0       -1.572822   -1.188119    1.324949
      9          8           0        0.160828    1.835818   -0.484133
     10          8           0        1.031084   -0.820787   -0.077738
     11          1           0        0.629135    0.845438    1.828203
     12          1           0       -0.192208    1.775689   -1.372428
     13          6           0        2.424693   -0.714113   -0.251312
     14          1           0        2.803543   -1.678319   -0.594783
     15          1           0        2.927336   -0.458557    0.689327
     16          1           0        2.678424    0.047210   -0.995018
 ---------------------------------------------------------------------

 SCF Done:  E(RPBE1PBE) =  -560.054713537     A.U. after   13 cycles

 The electronic state is 1-A.
 Alpha  occ. eigenvalues --  -66.26739 -19.20587 -19.19458 -10.26664 -10.21854
 Alpha  occ. eigenvalues --  -10.21356  -5.34163  -3.67690  -3.67587  -3.67433
 Alpha  occ. eigenvalues --   -1.04490  -1.00059  -0.78474  -0.70801  -0.64290
 Alpha  occ. eigenvalues --   -0.55474  -0.50546  -0.47093  -0.46820  -0.46028
 Alpha  occ. eigenvalues --   -0.43752  -0.41362  -0.38151  -0.37014  -0.36382
 Alpha  occ. eigenvalues --   -0.34570  -0.31845  -0.30672  -0.30061
 Alpha virt. eigenvalues --    0.02228   0.05090   0.05767   0.07798   0.08873
 Alpha virt. eigenvalues --    0.09908   0.10452   0.10987   0.12158   0.13291
 Alpha virt. eigenvalues --    0.13557   0.15042   0.15641   0.16132   0.19053

 Mulliken atomic charges:
              1
     1  H    0.130180
     2  C   -0.391133
     3  C   -0.296873
     4  H    0.109269
     5  H    0.141655
     6  H    0.123880
     7  Si   0.557835
     8  H    0.119910
     9  O   -0.581859
    10  O   -0.333832
    11  H   -0.052287
    12  H    0.313854
    13  C   -0.212404
    14  H    0.129393
    15  H    0.117802
    16  H    0.124610
 Sum of Mulliken atomic charges =   0.00000

 Dipole moment (field-independent basis, Debye):
    X=             -0.2972    Y=             -0.9610    Z=             -0.6315  Tot=              1.1877
 Quadrupole moment (field-independent basis, Debye-Ang):
   XX=            -40.8423   YY=            -50.0404   ZZ=            -42.8187
   XY=             -1.7598   XZ=             -0.2379   YZ=             -1.8016

 Normal termination of Gaussian 09 at Fri Aug 10 05:30:43 2018.
