 Gaussian 09, Revision C.01,
 Gaussian 09:  EM64L-G09RevC.01 23-Sep-2011

 --------------------------------------
 #SP PBE1PBE/Def2TZVP geom=connectivity
 --------------------------------------

 99/5=1,9=1/99;
 --------------
 Structure: 267
 --------------
 Charge =  0 Multiplicity = 1

                         Standard orientation:
 ---------------------------------------------------------------------
 Center     Atomic      Atomic             Coordinates (Angstroms)
 Number     Number       Type             X           Y           Z
 ---------------------------------------------------------------------
      1          1           0       -3.234952   -1.159399   -0.589095
      2          6           0       -2.238108   -0.726632   -0.705989
      3          6           0       -1.625113   -0.354728    0.643459
      4          1           0       -2.346114    0.147341   -1.355465
      5          1           0       -1.620079   -1.456899   -1.234156
      6          1           0       -2.259583    0.370995    1.164206
      7         14           0        0.090214    0.358889    0.540369
      8          1           0       -1.575473   -1.235997    1.291818
      9          8           0        0.165896    1.897825   -0.456796
     10          8           0        1.029617   -0.828064   -0.097386
     11          1           0        0.628836    0.777844    1.859886
     12          1           0       -0.186834    1.866049   -1.347702
     13          6           0        2.423451   -0.717788   -0.266860
     14          1           0        2.801238   -1.671193   -0.640343
     15          1           0        2.925942   -0.492629    0.681594
     16          1           0        2.678538    0.066244   -0.986107
 ---------------------------------------------------------------------

 SCF Done:  E(RPBE1PBE) =  -560.046866083     A.U. after   13 cycles

 The electronic state is 1-A.
 Alpha  occ. eigenvalues --  -66.27407 -19.20907 -19.18978 -10.26789 -10.21928
 Alpha  occ. eigenvalues --  -10.21625  -5.34747  -3.68280  -3.68173  -3.68010
 Alpha  occ. eigenvalues --   -1.04695  -0.98778  -0.78626  -0.70963  -0.64431
 Alpha  occ. eigenvalues --   -0.55114  -0.49975  -0.47237  -0.46939  -0.46069
 Alpha  occ. eigenvalues --   -0.43860  -0.41575  -0.38171  -0.36782  -0.36072
 Alpha  occ. eigenvalues --   -0.34191  -0.31638  -0.30727  -0.30137
 Alpha virt. eigenvalues --    0.02062   0.04789   0.05587   0.07673   0.08796
 Alpha virt. eigenvalues --    0.09631   0.10195   0.10777   0.12063   0.13037
 Alpha virt. eigenvalues --    0.13447   0.14856   0.15410   0.15965   0.18918

 Mulliken atomic charges:
              1
     1  H    0.130202
     2  C   -0.389829
     3  C   -0.292895
     4  H    0.111436
     5  H    0.141223
     6  H    0.125340
     7  Si   0.564214
     8  H    0.121046
     9  O   -0.606847
    10  O   -0.331090
    11  H   -0.046403
    12  H    0.311708
    13  C   -0.213164
    14  H    0.129791
    15  H    0.117995
    16  H    0.127275
 Sum of Mulliken atomic charges =   0.00000

 Dipole moment (field-independent basis, Debye):
    X=             -0.3058    Y=             -1.1953    Z=             -0.5033  Tot=              1.3324
 Quadrupole moment (field-independent basis, Debye-Ang):
   XX=            -40.6540   YY=            -50.5055   ZZ=            -42.7860
   XY=             -1.8278   XZ=             -0.2594   YZ=             -1.8492

 Normal termination of Gaussian 09 at Fri Aug 10 01:44:55 2018.
