 Gaussian 09, Revision C.01,
 Gaussian 09:  EM64L-G09RevC.01 23-Sep-2011

 --------------------------------------
 #SP PBE1PBE/Def2TZVP geom=connectivity
 --------------------------------------

 99/5=1,9=1/99;
 --------------
 Structure: 277
 --------------
 Charge =  0 Multiplicity = 1

                         Standard orientation:
 ---------------------------------------------------------------------
 Center     Atomic      Atomic             Coordinates (Angstroms)
 Number     Number       Type             X           Y           Z
 ---------------------------------------------------------------------
      1          1           0       -3.235225   -1.155837   -0.598151
      2          6           0       -2.238251   -0.722311   -0.711055
      3          6           0       -1.625316   -0.362656    0.641736
      4          1           0       -2.345946    0.157466   -1.352700
      5          1           0       -1.620356   -1.447991   -1.245661
      6          1           0       -2.259652    0.358551    1.168880
      7         14           0        0.090216    0.351393    0.545231
      8          1           0       -1.575988   -1.249702    1.282193
      9          8           0        0.166629    1.916079   -0.448839
     10          8           0        1.029375   -0.830062   -0.103007
     11          1           0        0.628794    0.758384    1.868505
     12          1           0       -0.186004    1.892368   -1.340034
     13          6           0        2.423258   -0.718649   -0.271327
     14          1           0        2.800833   -1.668778   -0.653279
     15          1           0        2.925698   -0.502118    0.679161
     16          1           0        2.678640    0.071715   -0.983503
 ---------------------------------------------------------------------

 SCF Done:  E(RPBE1PBE) =  -560.044172215     A.U. after   13 cycles

 The electronic state is 1-A.
 Alpha  occ. eigenvalues --  -66.27594 -19.21002 -19.18829 -10.26828 -10.21950
 Alpha  occ. eigenvalues --  -10.21702  -5.34914  -3.68449  -3.68340  -3.68174
 Alpha  occ. eigenvalues --   -1.04763  -0.98422  -0.78670  -0.71013  -0.64472
 Alpha  occ. eigenvalues --   -0.55051  -0.49795  -0.47280  -0.46975  -0.46080
 Alpha  occ. eigenvalues --   -0.43891  -0.41634  -0.38203  -0.36776  -0.35913
 Alpha  occ. eigenvalues --   -0.34130  -0.31574  -0.30728  -0.30118
 Alpha virt. eigenvalues --    0.01992   0.04695   0.05531   0.07635   0.08769
 Alpha virt. eigenvalues --    0.09523   0.10133   0.10721   0.12033   0.12960
 Alpha virt. eigenvalues --    0.13423   0.14790   0.15356   0.15922   0.18880

 Mulliken atomic charges:
              1
     1  H    0.130210
     2  C   -0.389442
     3  C   -0.291833
     4  H    0.112069
     5  H    0.141095
     6  H    0.125765
     7  Si   0.565682
     8  H    0.121361
     9  O   -0.613608
    10  O   -0.330277
    11  H   -0.044706
    12  H    0.311062
    13  C   -0.213419
    14  H    0.129919
    15  H    0.118064
    16  H    0.128057
 Sum of Mulliken atomic charges =   0.00000

 Dipole moment (field-independent basis, Debye):
    X=             -0.3068    Y=             -1.2668    Z=             -0.4673  Tot=              1.3847
 Quadrupole moment (field-independent basis, Debye-Ang):
   XX=            -40.5966   YY=            -50.6481   ZZ=            -42.7762
   XY=             -1.8466   XZ=             -0.2650   YZ=             -1.8648

 Normal termination of Gaussian 09 at Fri Aug 10 02:51:10 2018.
