 Gaussian 09, Revision C.01,
 Gaussian 09:  EM64L-G09RevC.01 23-Sep-2011

 --------------------------------------
 #SP PBE1PBE/Def2TZVP geom=connectivity
 --------------------------------------

 99/5=1,9=1/99;
 --------------
 Structure: 287
 --------------
 Charge =  0 Multiplicity = 1

                         Standard orientation:
 ---------------------------------------------------------------------
 Center     Atomic      Atomic             Coordinates (Angstroms)
 Number     Number       Type             X           Y           Z
 ---------------------------------------------------------------------
      1          1           0       -3.235847   -1.151660   -0.607230
      2          6           0       -2.238652   -0.717618   -0.716128
      3          6           0       -1.625762   -0.370273    0.639897
      4          1           0       -2.345832    0.167869   -1.349956
      5          1           0       -1.621013   -1.438816   -1.257058
      6          1           0       -2.259843    0.346525    1.173323
      7         14           0        0.090120    0.343796    0.549997
      8          1           0       -1.576952   -1.262991    1.272463
      9          8           0        0.168549    1.934613   -0.440802
     10          8           0        1.028828   -0.832300   -0.108556
     11          1           0        0.628679    0.738773    1.876914
     12          1           0       -0.183954    1.918978   -1.332227
     13          6           0        2.422789   -0.720054   -0.275666
     14          1           0        2.799979   -1.666933   -0.665977
     15          1           0        2.925180   -0.512205    0.676785
     16          1           0        2.678655    0.076480   -0.980759
 ---------------------------------------------------------------------

 SCF Done:  E(RPBE1PBE) =  -560.041292466     A.U. after   14 cycles

 The electronic state is 1-A.
 Alpha  occ. eigenvalues --  -66.27778 -19.21098 -19.18677 -10.26866 -10.21973
 Alpha  occ. eigenvalues --  -10.21782  -5.35081  -3.68619  -3.68506  -3.68338
 Alpha  occ. eigenvalues --   -1.04833  -0.98068  -0.78717  -0.71062  -0.64516
 Alpha  occ. eigenvalues --   -0.55002  -0.49609  -0.47322  -0.47010  -0.46090
 Alpha  occ. eigenvalues --   -0.43923  -0.41691  -0.38243  -0.36785  -0.35743
 Alpha  occ. eigenvalues --   -0.34088  -0.31518  -0.30723  -0.30071
 Alpha virt. eigenvalues --    0.01909   0.04597   0.05472   0.07597   0.08737
 Alpha virt. eigenvalues --    0.09407   0.10075   0.10665   0.12003   0.12885
 Alpha virt. eigenvalues --    0.13398   0.14718   0.15303   0.15881   0.18841

 Mulliken atomic charges:
              1
     1  H    0.130228
     2  C   -0.389047
     3  C   -0.290807
     4  H    0.112732
     5  H    0.140976
     6  H    0.126206
     7  Si   0.566918
     8  H    0.121705
     9  O   -0.620198
    10  O   -0.329458
    11  H   -0.043023
    12  H    0.310403
    13  C   -0.213657
    14  H    0.130047
    15  H    0.118134
    16  H    0.128842
 Sum of Mulliken atomic charges =   0.00000

 Dipole moment (field-independent basis, Debye):
    X=             -0.3101    Y=             -1.3408    Z=             -0.4320  Tot=              1.4424
 Quadrupole moment (field-independent basis, Debye-Ang):
   XX=            -40.5396   YY=            -50.7947   ZZ=            -42.7662
   XY=             -1.8693   XZ=             -0.2722   YZ=             -1.8822

 Normal termination of Gaussian 09 at Fri Aug 10 03:58:55 2018.
