 Gaussian 09, Revision C.01,
 Gaussian 09:  EM64L-G09RevC.01 23-Sep-2011

 --------------------------------------
 #SP PBE1PBE/Def2TZVP geom=connectivity
 --------------------------------------

 99/5=1,9=1/99;
 --------------
 Structure: 237
 --------------
 Charge =  0 Multiplicity = 1

                         Standard orientation:
 ---------------------------------------------------------------------
 Center     Atomic      Atomic             Coordinates (Angstroms)
 Number     Number       Type             X           Y           Z
 ---------------------------------------------------------------------
      1          1           0       -3.233385   -1.171637   -0.560162
      2          6           0       -2.237113   -0.741130   -0.689603
      3          6           0       -1.623981   -0.330825    0.648606
      4          1           0       -2.346451    0.114170   -1.363266
      5          1           0       -1.618435   -1.485176   -1.197387
      6          1           0       -2.259097    0.408450    1.149107
      7         14           0        0.090442    0.381664    0.524758
      8          1           0       -1.573000   -1.193519    1.321384
      9          8           0        0.161099    1.842742   -0.481025
     10          8           0        1.030996   -0.821577   -0.079923
     11          1           0        0.629131    0.838074    1.831764
     12          1           0       -0.191979    1.785592   -1.370525
     13          6           0        2.424622   -0.714434   -0.253072
     14          1           0        2.803394   -1.677481   -0.599866
     15          1           0        2.927253   -0.462186    0.688466
     16          1           0        2.678454    0.049436   -0.994126
 ---------------------------------------------------------------------

 SCF Done:  E(RPBE1PBE) =  -560.053969929     A.U. after   13 cycles

 The electronic state is 1-A.
 Alpha  occ. eigenvalues --  -66.26814 -19.20622 -19.19415 -10.26678 -10.21862
 Alpha  occ. eigenvalues --  -10.21384  -5.34227  -3.67755  -3.67652  -3.67497
 Alpha  occ. eigenvalues --   -1.04510  -0.99897  -0.78490  -0.70819  -0.64304
 Alpha  occ. eigenvalues --   -0.55416  -0.50483  -0.47109  -0.46833  -0.46032
 Alpha  occ. eigenvalues --   -0.43763  -0.41384  -0.38140  -0.36973  -0.36368
 Alpha  occ. eigenvalues --   -0.34514  -0.31827  -0.30681  -0.30075
 Alpha virt. eigenvalues --    0.02209   0.05058   0.05748   0.07785   0.08862
 Alpha virt. eigenvalues --    0.09883   0.10424   0.10963   0.12147   0.13266
 Alpha virt. eigenvalues --    0.13540   0.15024   0.15609   0.16112   0.19038

 Mulliken atomic charges:
              1
     1  H    0.130180
     2  C   -0.390999
     3  C   -0.296385
     4  H    0.109490
     5  H    0.141604
     6  H    0.124038
     7  Si   0.558650
     8  H    0.120025
     9  O   -0.584895
    10  O   -0.333525
    11  H   -0.051630
    12  H    0.313771
    13  C   -0.212485
    14  H    0.129437
    15  H    0.117827
    16  H    0.124897
 Sum of Mulliken atomic charges =   0.00000

 Dipole moment (field-independent basis, Debye):
    X=             -0.2974    Y=             -0.9860    Z=             -0.6181  Tot=              1.2012
 Quadrupole moment (field-independent basis, Debye-Ang):
   XX=            -40.8226   YY=            -50.0918   ZZ=            -42.8132
   XY=             -1.7663   XZ=             -0.2399   YZ=             -1.8079

 Normal termination of Gaussian 09 at Fri Aug 10 05:58:19 2018.
