 Gaussian 09, Revision C.01,
 Gaussian 09:  EM64L-G09RevC.01 23-Sep-2011

 --------------------------------------
 #SP PBE1PBE/Def2TZVP geom=connectivity
 --------------------------------------

 99/5=1,9=1/99;
 --------------
 Structure: 205
 --------------
 Charge =  0 Multiplicity = 1

                         Standard orientation:
 ---------------------------------------------------------------------
 Center     Atomic      Atomic             Coordinates (Angstroms)
 Number     Number       Type             X           Y           Z
 ---------------------------------------------------------------------
      1          1           0       -3.232003   -1.184050   -0.527598
      2          6           0       -2.236252   -0.756732   -0.670877
      3          6           0       -1.622989   -0.304195    0.653587
      4          1           0       -2.346804    0.077002   -1.370862
      5          1           0       -1.616989   -1.515608   -1.155471
      6          1           0       -2.258689    0.449668    1.131058
      7         14           0        0.090610    0.405907    0.506762
      8          1           0       -1.570787   -1.145409    1.352945
      9          8           0        0.156962    1.783694   -0.507018
     10          8           0        1.032203   -0.814622   -0.060495
     11          1           0        0.629367    0.903473    1.798633
     12          1           0       -0.196364    1.698589   -1.393153
     13          6           0        2.425638   -0.711451   -0.237549
     14          1           0        2.805301   -1.684451   -0.554285
     15          1           0        2.928401   -0.429396    0.695422
     16          1           0        2.678327    0.029181   -1.002207
 ---------------------------------------------------------------------

 SCF Done:  E(RPBE1PBE) =  -560.059269291     A.U. after   12 cycles

 The electronic state is 1-A.
 Alpha  occ. eigenvalues --  -66.26131 -19.20319 -19.19843 -10.26562 -10.21796
 Alpha  occ. eigenvalues --  -10.21127  -5.33649  -3.67175  -3.67070  -3.66923
 Alpha  occ. eigenvalues --   -1.04373  -1.01148  -0.78349  -0.70668  -0.64177
 Alpha  occ. eigenvalues --   -0.55955  -0.50909  -0.46973  -0.46724  -0.45998
 Alpha  occ. eigenvalues --   -0.43662  -0.41169  -0.38412  -0.37238  -0.36424
 Alpha  occ. eigenvalues --   -0.35077  -0.31917  -0.30581  -0.29907
 Alpha virt. eigenvalues --    0.02291   0.05317   0.05902   0.07901   0.08923
 Alpha virt. eigenvalues --    0.10053   0.10664   0.11186   0.12231   0.13429
 Alpha virt. eigenvalues --    0.13742   0.15150   0.15854   0.16309   0.19167

 Mulliken atomic charges:
              1
     1  H    0.130186
     2  C   -0.392230
     3  C   -0.300714
     4  H    0.107458
     5  H    0.142035
     6  H    0.122657
     7  Si   0.550291
     8  H    0.118951
     9  O   -0.558183
    10  O   -0.336239
    11  H   -0.057437
    12  H    0.315952
    13  C   -0.211825
    14  H    0.129085
    15  H    0.117674
    16  H    0.122339
 Sum of Mulliken atomic charges =   0.00000

 Dipole moment (field-independent basis, Debye):
    X=             -0.2904    Y=             -0.7757    Z=             -0.7490  Tot=              1.1167
 Quadrupole moment (field-independent basis, Debye-Ang):
   XX=            -40.9999   YY=            -49.6733   ZZ=            -42.8399
   XY=             -1.7065   XZ=             -0.2208   YZ=             -1.7741

 Normal termination of Gaussian 09 at Fri Aug 10 02:26:49 2018.
