 Gaussian 09, Revision C.01,
 Gaussian 09:  EM64L-G09RevC.01 23-Sep-2011

 --------------------------------------
 #SP PBE1PBE/Def2TZVP geom=connectivity
 --------------------------------------

 99/5=1,9=1/99;
 --------------
 Structure: 263
 --------------
 Charge =  0 Multiplicity = 1

                         Standard orientation:
 ---------------------------------------------------------------------
 Center     Atomic      Atomic             Coordinates (Angstroms)
 Number     Number       Type             X           Y           Z
 ---------------------------------------------------------------------
      1          1           0       -3.234505   -1.161285   -0.585522
      2          6           0       -2.237797   -0.728626   -0.703959
      3          6           0       -1.624804   -0.351980    0.644173
      4          1           0       -2.346109    0.143114   -1.356380
      5          1           0       -1.619597   -1.460496   -1.229702
      6          1           0       -2.259443    0.375315    1.162513
      7         14           0        0.090308    0.361783    0.538532
      8          1           0       -1.574855   -1.231036    1.295506
      9          8           0        0.164452    1.890630   -0.460005
     10          8           0        1.030007   -0.827047   -0.095279
     11          1           0        0.628912    0.785357    1.856582
     12          1           0       -0.188268    1.855846   -1.349779
     13          6           0        2.423794   -0.716938   -0.265237
     14          1           0        2.801830   -1.671492   -0.635522
     15          1           0        2.926295   -0.488426    0.682410
     16          1           0        2.678596    0.064730   -0.987152
 ---------------------------------------------------------------------

 SCF Done:  E(RPBE1PBE) =  -560.047865557     A.U. after   13 cycles

 The electronic state is 1-A.
 Alpha  occ. eigenvalues --  -66.27335 -19.20871 -19.19025 -10.26775 -10.21919
 Alpha  occ. eigenvalues --  -10.21593  -5.34683  -3.68216  -3.68109  -3.67947
 Alpha  occ. eigenvalues --   -1.04671  -0.98940  -0.78608  -0.70945  -0.64414
 Alpha  occ. eigenvalues --   -0.55150  -0.50053  -0.47222  -0.46926  -0.46065
 Alpha  occ. eigenvalues --   -0.43848  -0.41554  -0.38160  -0.36789  -0.36129
 Alpha  occ. eigenvalues --   -0.34221  -0.31666  -0.30724  -0.30138
 Alpha virt. eigenvalues --    0.02093   0.04825   0.05608   0.07687   0.08809
 Alpha virt. eigenvalues --    0.09671   0.10222   0.10799   0.12075   0.13065
 Alpha virt. eigenvalues --    0.13459   0.14880   0.15442   0.15982   0.18935

 Mulliken atomic charges:
              1
     1  H    0.130194
     2  C   -0.389976
     3  C   -0.293328
     4  H    0.111184
     5  H    0.141266
     6  H    0.125166
     7  Si   0.563689
     8  H    0.120899
     9  O   -0.604080
    10  O   -0.331391
    11  H   -0.047040
    12  H    0.311810
    13  C   -0.213096
    14  H    0.129748
    15  H    0.117970
    16  H    0.126984
 Sum of Mulliken atomic charges =   0.00000

 Dipole moment (field-independent basis, Debye):
    X=             -0.3034    Y=             -1.1676    Z=             -0.5159  Tot=              1.3121
 Quadrupole moment (field-independent basis, Debye-Ang):
   XX=            -40.6734   YY=            -50.4498   ZZ=            -42.7915
   XY=             -1.8176   XZ=             -0.2557   YZ=             -1.8408

 Normal termination of Gaussian 09 at Fri Aug 10 01:17:25 2018.
