 Gaussian 09, Revision C.01,
 Gaussian 09:  EM64L-G09RevC.01 23-Sep-2011

 --------------------------------------
 #SP PBE1PBE/Def2TZVP geom=connectivity
 --------------------------------------

 99/5=1,9=1/99;
 --------------
 Structure: 257
 --------------
 Charge =  0 Multiplicity = 1

                         Standard orientation:
 ---------------------------------------------------------------------
 Center     Atomic      Atomic             Coordinates (Angstroms)
 Number     Number       Type             X           Y           Z
 ---------------------------------------------------------------------
      1          1           0       -3.234220   -1.163845   -0.579706
      2          6           0       -2.237620   -0.731642   -0.700694
      3          6           0       -1.624586   -0.347205    0.645219
      4          1           0       -2.346190    0.136353   -1.358045
      5          1           0       -1.619305   -1.466347   -1.222330
      6          1           0       -2.259341    0.382880    1.159479
      7         14           0        0.090355    0.366333    0.535362
      8          1           0       -1.574378   -1.222536    1.301530
      9          8           0        0.163567    1.880004   -0.464667
     10          8           0        1.030262   -0.825867   -0.091774
     11          1           0        0.628986    0.797508    1.850933
     12          1           0       -0.189300    1.839972   -1.355186
     13          6           0        2.424009   -0.716413   -0.262488
     14          1           0        2.802225   -1.672969   -0.627381
     15          1           0        2.926547   -0.482408    0.683798
     16          1           0        2.678567    0.061199   -0.988856
 ---------------------------------------------------------------------

 SCF Done:  E(RPBE1PBE) =  -560.049364997     A.U. after   13 cycles

 The electronic state is 1-A.
 Alpha  occ. eigenvalues --  -66.27219 -19.20816 -19.19123 -10.26754 -10.21905
 Alpha  occ. eigenvalues --  -10.21545  -5.34580  -3.68111  -3.68006  -3.67846
 Alpha  occ. eigenvalues --   -1.04633  -0.99136  -0.78580  -0.70917  -0.64388
 Alpha  occ. eigenvalues --   -0.55194  -0.50150  -0.47197  -0.46906  -0.46056
 Alpha  occ. eigenvalues --   -0.43828  -0.41514  -0.38145  -0.36810  -0.36207
 Alpha  occ. eigenvalues --   -0.34273  -0.31706  -0.30719  -0.30133
 Alpha virt. eigenvalues --    0.02120   0.04880   0.05641   0.07710   0.08820
 Alpha virt. eigenvalues --    0.09725   0.10266   0.10835   0.12090   0.13112
 Alpha virt. eigenvalues --    0.13473   0.14916   0.15472   0.16010   0.18957

 Mulliken atomic charges:
              1
     1  H    0.130189
     2  C   -0.390213
     3  C   -0.293974
     4  H    0.110790
     5  H    0.141339
     6  H    0.124914
     7  Si   0.562638
     8  H    0.120700
     9  O   -0.599972
    10  O   -0.331871
    11  H   -0.048082
    12  H    0.312365
    13  C   -0.212954
    14  H    0.129679
    15  H    0.117945
    16  H    0.126507
 Sum of Mulliken atomic charges =   0.00000

 Dipole moment (field-independent basis, Debye):
    X=             -0.3016    Y=             -1.1262    Z=             -0.5399  Tot=              1.2848
 Quadrupole moment (field-independent basis, Debye-Ang):
   XX=            -40.7078   YY=            -50.3697   ZZ=            -42.7954
   XY=             -1.8056   XZ=             -0.2522   YZ=             -1.8344

 Normal termination of Gaussian 09 at Fri Aug 10 00:36:18 2018.
