 Gaussian 09, Revision C.01,
 Gaussian 09:  EM64L-G09RevC.01 23-Sep-2011

 --------------------------------------
 #SP PBE1PBE/Def2TZVP geom=connectivity
 --------------------------------------

 99/5=1,9=1/99;
 --------------
 Structure: 208
 --------------
 Charge =  0 Multiplicity = 1

                         Standard orientation:
 ---------------------------------------------------------------------
 Center     Atomic      Atomic             Coordinates (Angstroms)
 Number     Number       Type             X           Y           Z
 ---------------------------------------------------------------------
      1          1           0       -3.231938   -1.183403   -0.530372
      2          6           0       -2.236188   -0.755694   -0.672486
      3          6           0       -1.622937   -0.306745    0.653204
      4          1           0       -2.346739    0.079934   -1.370210
      5          1           0       -1.616918   -1.513251   -1.159130
      6          1           0       -2.258643    0.445818    1.132712
      7         14           0        0.090660    0.403761    0.508315
      8          1           0       -1.570735   -1.149851    1.350280
      9          8           0        0.156661    1.789281   -0.504549
     10          8           0        1.032263   -0.815221   -0.062240
     11          1           0        0.629406    0.897827    1.801534
     12          1           0       -0.196730    1.706415   -1.391899
     13          6           0        2.425699   -0.711565   -0.239005
     14          1           0        2.805369   -1.683701   -0.558373
     15          1           0        2.928454   -0.432037    0.694730
     16          1           0        2.678390    0.031139   -1.001651
 ---------------------------------------------------------------------

 SCF Done:  E(RPBE1PBE) =  -560.058910894     A.U. after   12 cycles

 The electronic state is 1-A.
 Alpha  occ. eigenvalues --  -66.26193 -19.20349 -19.19814 -10.26574 -10.21801
 Alpha  occ. eigenvalues --  -10.21148  -5.33701  -3.67227  -3.67123  -3.66974
 Alpha  occ. eigenvalues --   -1.04381  -1.01018  -0.78360  -0.70683  -0.64187
 Alpha  occ. eigenvalues --   -0.55888  -0.50873  -0.46985  -0.46734  -0.45999
 Alpha  occ. eigenvalues --   -0.43670  -0.41186  -0.38368  -0.37225  -0.36419
 Alpha  occ. eigenvalues --   -0.35019  -0.31916  -0.30592  -0.29923
 Alpha virt. eigenvalues --    0.02279   0.05295   0.05888   0.07891   0.08915
 Alpha virt. eigenvalues --    0.10039   0.10646   0.11165   0.12222   0.13419
 Alpha virt. eigenvalues --    0.13718   0.15140   0.15829   0.16289   0.19155

 Mulliken atomic charges:
              1
     1  H    0.130182
     2  C   -0.392126
     3  C   -0.300276
     4  H    0.107618
     5  H    0.141989
     6  H    0.122780
     7  Si   0.551155
     8  H    0.119030
     9  O   -0.560876
    10  O   -0.335979
    11  H   -0.056908
    12  H    0.315916
    13  C   -0.211894
    14  H    0.129122
    15  H    0.117700
    16  H    0.122567
 Sum of Mulliken atomic charges =   0.00000

 Dipole moment (field-independent basis, Debye):
    X=             -0.2895    Y=             -0.7945    Z=             -0.7384  Tot=              1.1227
 Quadrupole moment (field-independent basis, Debye-Ang):
   XX=            -40.9840   YY=            -49.7131   ZZ=            -42.8358
   XY=             -1.7105   XZ=             -0.2219   YZ=             -1.7784

 Normal termination of Gaussian 09 at Fri Aug 10 02:45:53 2018.
