 Gaussian 09, Revision C.01,
 Gaussian 09:  EM64L-G09RevC.01 23-Sep-2011

 --------------------------------------
 #SP PBE1PBE/Def2TZVP geom=connectivity
 --------------------------------------

 99/5=1,9=1/99;
 -------------
 Structure: 28
 -------------
 Charge =  0 Multiplicity = 1

                         Standard orientation:
 ---------------------------------------------------------------------
 Center     Atomic      Atomic             Coordinates (Angstroms)
 Number     Number       Type             X           Y           Z
 ---------------------------------------------------------------------
      1          1           0       -3.225447   -1.243752   -0.308215
      2          6           0       -2.232132   -0.849824   -0.537989
      3          6           0       -1.618254   -0.136271    0.665789
      4          1           0       -2.348315   -0.175244   -1.391662
      5          1           0       -1.610173   -1.688237   -0.861162
      6          1           0       -2.256640    0.695721    0.983052
      7         14           0        0.091493    0.537050    0.373164
      8          1           0       -1.560384   -0.818560    1.520542
      9          8           0        0.137379    1.445302   -0.635079
     10          8           0        1.037880   -0.768771    0.061318
     11          1           0        0.630572    1.287788    1.536155
     12          1           0       -0.218417    1.180601   -1.485351
     13          6           0        2.430403   -0.697373   -0.137271
     14          1           0        2.814185   -1.712624   -0.252035
     15          1           0        2.933779   -0.230385    0.717887
     16          1           0        2.677775   -0.125443   -1.036600
 ---------------------------------------------------------------------

 SCF Done:  E(RPBE1PBE) =  -559.974992882     A.U. after   12 cycles

 The electronic state is 1-A.
 Alpha  occ. eigenvalues --  -66.20845 -19.21257 -19.18674 -10.26004 -10.21512
 Alpha  occ. eigenvalues --  -10.19638  -5.30079  -3.63848  -3.63303  -3.63140
 Alpha  occ. eigenvalues --   -1.10973  -1.02583  -0.77637  -0.69919  -0.63881
 Alpha  occ. eigenvalues --   -0.61299  -0.51495  -0.47353  -0.46629  -0.45953
 Alpha  occ. eigenvalues --   -0.43558  -0.42747  -0.41279  -0.39480  -0.36313
 Alpha  occ. eigenvalues --   -0.35651  -0.31107  -0.29664  -0.28441
 Alpha virt. eigenvalues --    0.01800   0.06180   0.06623   0.08478   0.09131
 Alpha virt. eigenvalues --    0.10535   0.11398   0.12071   0.12559   0.13505
 Alpha virt. eigenvalues --    0.15268   0.15635   0.17045   0.17665   0.19776

 Mulliken atomic charges:
              1
     1  H    0.130796
     2  C   -0.400833
     3  C   -0.337534
     4  H    0.096994
     5  H    0.145098
     6  H    0.114987
     7  Si   0.454587
     8  H    0.113409
     9  O   -0.335507
    10  O   -0.361473
    11  H   -0.096918
    12  H    0.334630
    13  C   -0.211438
    14  H    0.127677
    15  H    0.117651
    16  H    0.107873
 Sum of Mulliken atomic charges =   0.00000

 Dipole moment (field-independent basis, Debye):
    X=             -0.2574    Y=              0.0835    Z=             -1.6774  Tot=              1.6991
 Quadrupole moment (field-independent basis, Debye-Ang):
   XX=            -41.9052   YY=            -47.8817   ZZ=            -42.8287
   XY=             -1.4419   XZ=             -0.1414   YZ=             -1.8328

 Normal termination of Gaussian 09 at Fri Aug 10 00:51:25 2018.
