 Gaussian 09, Revision C.01,
 Gaussian 09:  EM64L-G09RevC.01 23-Sep-2011

 --------------------------------------
 #SP PBE1PBE/Def2TZVP geom=connectivity
 --------------------------------------

 99/5=1,9=1/99;
 --------------
 Structure: 290
 --------------
 Charge =  0 Multiplicity = 1

                         Standard orientation:
 ---------------------------------------------------------------------
 Center     Atomic      Atomic             Coordinates (Angstroms)
 Number     Number       Type             X           Y           Z
 ---------------------------------------------------------------------
      1          1           0       -3.236205   -1.150017   -0.609923
      2          6           0       -2.238901   -0.715928   -0.717623
      3          6           0       -1.626019   -0.372262    0.639343
      4          1           0       -2.345830    0.171233   -1.349148
      5          1           0       -1.621396   -1.435859   -1.260390
      6          1           0       -2.259966    0.343293    1.174593
      7         14           0        0.090037    0.341633    0.551418
      8          1           0       -1.577462   -1.266638    1.269583
      9          8           0        0.169822    1.939601   -0.438702
     10          8           0        1.028511   -0.832964   -0.110136
     11          1           0        0.628602    0.733024    1.879395
     12          1           0       -0.183468    1.926060   -1.329095
     13          6           0        2.422510   -0.720613   -0.276861
     14          1           0        2.799503   -1.666560   -0.669614
     15          1           0        2.924887   -0.515365    0.676161
     16          1           0        2.678611    0.077695   -0.979859
 ---------------------------------------------------------------------

 SCF Done:  E(RPBE1PBE) =  -560.040463596     A.U. after   14 cycles

 The electronic state is 1-A.
 Alpha  occ. eigenvalues --  -66.27830 -19.21123 -19.18628 -10.26876 -10.21982
 Alpha  occ. eigenvalues --  -10.21807  -5.35128  -3.68666  -3.68553  -3.68384
 Alpha  occ. eigenvalues --   -1.04852  -0.97988  -0.78732  -0.71075  -0.64530
 Alpha  occ. eigenvalues --   -0.54992  -0.49560  -0.47333  -0.47019  -0.46096
 Alpha  occ. eigenvalues --   -0.43933  -0.41710  -0.38257  -0.36792  -0.35697
 Alpha  occ. eigenvalues --   -0.34080  -0.31504  -0.30720  -0.30056
 Alpha virt. eigenvalues --    0.01886   0.04569   0.05455   0.07586   0.08729
 Alpha virt. eigenvalues --    0.09375   0.10058   0.10650   0.11995   0.12865
 Alpha virt. eigenvalues --    0.13391   0.14698   0.15293   0.15869   0.18831

 Mulliken atomic charges:
              1
     1  H    0.130242
     2  C   -0.388921
     3  C   -0.290576
     4  H    0.112912
     5  H    0.140962
     6  H    0.126339
     7  Si   0.567166
     8  H    0.121823
     9  O   -0.621828
    10  O   -0.329234
    11  H   -0.042557
    12  H    0.310089
    13  C   -0.213717
    14  H    0.130074
    15  H    0.118140
    16  H    0.129085
 Sum of Mulliken atomic charges =   0.00000

 Dipole moment (field-independent basis, Debye):
    X=             -0.3140    Y=             -1.3619    Z=             -0.4204  Tot=              1.4595
 Quadrupole moment (field-independent basis, Debye-Ang):
   XX=            -40.5224   YY=            -50.8354   ZZ=            -42.7670
   XY=             -1.8798   XZ=             -0.2727   YZ=             -1.8832

 Normal termination of Gaussian 09 at Fri Aug 10 04:20:28 2018.
