 Gaussian 09, Revision C.01,
 Gaussian 09:  EM64L-G09RevC.01 23-Sep-2011

 --------------------------------------
 #SP PBE1PBE/Def2TZVP geom=connectivity
 --------------------------------------

 99/5=1,9=1/99;
 --------------
 Structure: 227
 --------------
 Charge =  0 Multiplicity = 1

                         Standard orientation:
 ---------------------------------------------------------------------
 Center     Atomic      Atomic             Coordinates (Angstroms)
 Number     Number       Type             X           Y           Z
 ---------------------------------------------------------------------
      1          1           0       -3.232982   -1.175532   -0.550310
      2          6           0       -2.236868   -0.745954   -0.683979
      3          6           0       -1.623677   -0.322763    0.650185
      4          1           0       -2.346579    0.102876   -1.365716
      5          1           0       -1.618022   -1.494588   -1.184764
      6          1           0       -2.258961    0.421027    1.143737
      7         14           0        0.090498    0.389068    0.519327
      8          1           0       -1.572321   -1.179013    1.331116
      9          8           0        0.159970    1.825065   -0.488902
     10          8           0        1.031354   -0.819557   -0.074038
     11          1           0        0.629226    0.858041    1.821862
     12          1           0       -0.194128    1.758964   -1.377646
     13          6           0        2.424921   -0.713615   -0.248400
     14          1           0        2.803954   -1.679790   -0.586090
     15          1           0        2.927605   -0.452277    0.690627
     16          1           0        2.678400    0.043266   -0.996711
 ---------------------------------------------------------------------

 SCF Done:  E(RPBE1PBE) =  -560.055862166     A.U. after   13 cycles

 The electronic state is 1-A.
 Alpha  occ. eigenvalues --  -66.26611 -19.20531 -19.19555 -10.26642 -10.21843
 Alpha  occ. eigenvalues --  -10.21308  -5.34053  -3.67580  -3.67477  -3.67325
 Alpha  occ. eigenvalues --   -1.04459  -1.00265  -0.78448  -0.70773  -0.64266
 Alpha  occ. eigenvalues --   -0.55548  -0.50623  -0.47067  -0.46800  -0.46022
 Alpha  occ. eigenvalues --   -0.43733  -0.41319  -0.38179  -0.37077  -0.36397
 Alpha  occ. eigenvalues --   -0.34665  -0.31869  -0.30657  -0.30032
 Alpha virt. eigenvalues --    0.02236   0.05140   0.05796   0.07820   0.08880
 Alpha virt. eigenvalues --    0.09941   0.10500   0.11028   0.12172   0.13329
 Alpha virt. eigenvalues --    0.13585   0.15068   0.15679   0.16166   0.19077

 Mulliken atomic charges:
              1
     1  H    0.130187
     2  C   -0.391362
     3  C   -0.297657
     4  H    0.108849
     5  H    0.141745
     6  H    0.123636
     7  Si   0.556284
     8  H    0.119713
     9  O   -0.577133
    10  O   -0.334329
    11  H   -0.053388
    12  H    0.314483
    13  C   -0.212275
    14  H    0.129327
    15  H    0.117782
    16  H    0.124140
 Sum of Mulliken atomic charges =   0.00000

 Dipole moment (field-independent basis, Debye):
    X=             -0.2968    Y=             -0.9220    Z=             -0.6571  Tot=              1.1704
 Quadrupole moment (field-independent basis, Debye-Ang):
   XX=            -40.8754   YY=            -49.9659   ZZ=            -42.8235
   XY=             -1.7501   XZ=             -0.2322   YZ=             -1.7951

 Normal termination of Gaussian 09 at Fri Aug 10 04:49:21 2018.
