 Gaussian 09, Revision C.01,
 Gaussian 09:  EM64L-G09RevC.01 23-Sep-2011

 --------------------------------------
 #SP PBE1PBE/Def2TZVP geom=connectivity
 --------------------------------------

 99/5=1,9=1/99;
 -------------
 Structure: 23
 -------------
 Charge =  0 Multiplicity = 1

                         Standard orientation:
 ---------------------------------------------------------------------
 Center     Atomic      Atomic             Coordinates (Angstroms)
 Number     Number       Type             X           Y           Z
 ---------------------------------------------------------------------
      1          1           0       -3.225113   -1.245119   -0.301353
      2          6           0       -2.231893   -0.852437   -0.533650
      3          6           0       -1.618035   -0.131345    0.665638
      4          1           0       -2.348279   -0.183166   -1.391464
      5          1           0       -1.609810   -1.692716   -0.851695
      6          1           0       -2.256544    0.702474    0.977813
      7         14           0        0.091561    0.540468    0.368697
      8          1           0       -1.559960   -0.808328    1.524585
      9          8           0        0.136222    1.435275   -0.637922
     10          8           0        1.038160   -0.767082    0.064837
     11          1           0        0.630610    1.298477    1.526975
     12          1           0       -0.218622    1.165985   -1.485793
     13          6           0        2.430651   -0.696657   -0.134320
     14          1           0        2.814610   -1.712527   -0.242844
     15          1           0        2.934021   -0.224301    0.717888
     16          1           0        2.677835   -0.130249   -1.037190
 ---------------------------------------------------------------------

 SCF Done:  E(RPBE1PBE) =  -559.966787078     A.U. after   12 cycles

 The electronic state is 1-A.
 Alpha  occ. eigenvalues --  -66.20648 -19.21248 -19.18631 -10.25992 -10.21504
 Alpha  occ. eigenvalues --  -10.19592  -5.29983  -3.63778  -3.63188  -3.63024
 Alpha  occ. eigenvalues --   -1.11280  -1.02555  -0.77617  -0.69903  -0.63920
 Alpha  occ. eigenvalues --   -0.61461  -0.51510  -0.47456  -0.46658  -0.45939
 Alpha  occ. eigenvalues --   -0.43603  -0.42827  -0.41387  -0.39465  -0.36277
 Alpha  occ. eigenvalues --   -0.35635  -0.31075  -0.29636  -0.28393
 Alpha virt. eigenvalues --    0.01789   0.06187   0.06647   0.08490   0.09135
 Alpha virt. eigenvalues --    0.10543   0.11414   0.12085   0.12565   0.13503
 Alpha virt. eigenvalues --    0.15280   0.15663   0.17079   0.17698   0.19789

 Mulliken atomic charges:
              1
     1  H    0.130815
     2  C   -0.401125
     3  C   -0.338853
     4  H    0.096758
     5  H    0.145184
     6  H    0.114750
     7  Si   0.451926
     8  H    0.113242
     9  O   -0.328202
    10  O   -0.362541
    11  H   -0.098197
    12  H    0.334991
    13  C   -0.211550
    14  H    0.127656
    15  H    0.117677
    16  H    0.107469
 Sum of Mulliken atomic charges =   0.00000

 Dipole moment (field-independent basis, Debye):
    X=             -0.2541    Y=              0.1000    Z=             -1.7062  Tot=              1.7280
 Quadrupole moment (field-independent basis, Debye-Ang):
   XX=            -41.9270   YY=            -47.8407   ZZ=            -42.8246
   XY=             -1.4341   XZ=             -0.1414   YZ=             -1.8400

 Normal termination of Gaussian 09 at Fri Aug 10 00:18:04 2018.
