 Gaussian 09, Revision C.01,
 Gaussian 09:  EM64L-G09RevC.01 23-Sep-2011

 --------------------------------------
 #SP PBE1PBE/Def2TZVP geom=connectivity
 --------------------------------------

 99/5=1,9=1/99;
 --------------
 Structure: 217
 --------------
 Charge =  0 Multiplicity = 1

                         Standard orientation:
 ---------------------------------------------------------------------
 Center     Atomic      Atomic             Coordinates (Angstroms)
 Number     Number       Type             X           Y           Z
 ---------------------------------------------------------------------
      1          1           0       -3.232454   -1.179652   -0.539869
      2          6           0       -2.236527   -0.751044   -0.677975
      3          6           0       -1.623306   -0.314296    0.651798
      4          1           0       -2.346669    0.090884   -1.368149
      5          1           0       -1.617462   -1.504408   -1.171344
      6          1           0       -2.258807    0.434144    1.137983
      7         14           0        0.090572    0.396857    0.513571
      8          1           0       -1.571516   -1.163675    1.341249
      9          8           0        0.158268    1.806053   -0.497194
     10          8           0        1.031813   -0.817275   -0.067821
     11          1           0        0.629308    0.879040    1.811271
     12          1           0       -0.195022    1.731324   -1.385306
     13          6           0        2.425312   -0.712540   -0.243443
     14          1           0        2.804673   -1.681895   -0.571512
     15          1           0        2.928032   -0.441630    0.692848
     16          1           0        2.678387    0.036920   -0.999322
 ---------------------------------------------------------------------

 SCF Done:  E(RPBE1PBE) =  -560.057609830     A.U. after   12 cycles

 The electronic state is 1-A.
 Alpha  occ. eigenvalues --  -66.26392 -19.20434 -19.19692 -10.26606 -10.21820
 Alpha  occ. eigenvalues --  -10.21223  -5.33868  -3.67394  -3.67290  -3.67140
 Alpha  occ. eigenvalues --   -1.04413  -1.00666  -0.78401  -0.70725  -0.64223
 Alpha  occ. eigenvalues --   -0.55720  -0.50764  -0.47023  -0.46765  -0.46009
 Alpha  occ. eigenvalues --   -0.43699  -0.41249  -0.38257  -0.37169  -0.36410
 Alpha  occ. eigenvalues --   -0.34846  -0.31900  -0.30624  -0.29977
 Alpha virt. eigenvalues --    0.02263   0.05223   0.05846   0.07858   0.08899
 Alpha virt. eigenvalues --    0.09996   0.10580   0.11100   0.12199   0.13383
 Alpha virt. eigenvalues --    0.13649   0.15108   0.15758   0.16229   0.19118

 Mulliken atomic charges:
              1
     1  H    0.130181
     2  C   -0.391772
     3  C   -0.299005
     4  H    0.108206
     5  H    0.141868
     6  H    0.123177
     7  Si   0.553728
     8  H    0.119349
     9  O   -0.568698
    10  O   -0.335198
    11  H   -0.055242
    12  H    0.315220
    13  C   -0.212065
    14  H    0.129217
    15  H    0.117737
    16  H    0.123297
 Sum of Mulliken atomic charges =   0.00000

 Dipole moment (field-independent basis, Debye):
    X=             -0.2924    Y=             -0.8533    Z=             -0.7000  Tot=              1.1418
 Quadrupole moment (field-independent basis, Debye-Ang):
   XX=            -40.9339   YY=            -49.8294   ZZ=            -42.8294
   XY=             -1.7282   XZ=             -0.2278   YZ=             -1.7867

 Normal termination of Gaussian 09 at Fri Aug 10 03:43:15 2018.
