 Gaussian 09, Revision C.01,
 Gaussian 09:  EM64L-G09RevC.01 23-Sep-2011

 --------------------------------------
 #SP PBE1PBE/Def2TZVP geom=connectivity
 --------------------------------------

 99/5=1,9=1/99;
 --------------
 Structure: 283
 --------------
 Charge =  0 Multiplicity = 1

                         Standard orientation:
 ---------------------------------------------------------------------
 Center     Atomic      Atomic             Coordinates (Angstroms)
 Number     Number       Type             X           Y           Z
 ---------------------------------------------------------------------
      1          1           0       -3.235814   -1.152741   -0.603927
      2          6           0       -2.238653   -0.718988   -0.714280
      3          6           0       -1.625737   -0.367168    0.640578
      4          1           0       -2.345919    0.164415   -1.350997
      5          1           0       -1.620984   -1.441907   -1.252873
      6          1           0       -2.259848    0.351327    1.171682
      7         14           0        0.090091    0.346723    0.548280
      8          1           0       -1.576841   -1.257810    1.276058
      9          8           0        0.168671    1.926985   -0.444053
     10          8           0        1.028857   -0.831455   -0.106459
     11          1           0        0.628673    0.746075    1.873878
     12          1           0       -0.185109    1.909018   -1.334369
     13          6           0        2.422804   -0.719659   -0.273987
     14          1           0        2.800046   -1.667782   -0.661215
     15          1           0        2.925216   -0.508661    0.677760
     16          1           0        2.678589    0.074583   -0.981691
 ---------------------------------------------------------------------

 SCF Done:  E(RPBE1PBE) =  -560.042446565     A.U. after   13 cycles

 The electronic state is 1-A.
 Alpha  occ. eigenvalues --  -66.27707 -19.21057 -19.18731 -10.26848 -10.21965
 Alpha  occ. eigenvalues --  -10.21752  -5.35016  -3.68553  -3.68441  -3.68274
 Alpha  occ. eigenvalues --   -1.04803  -0.98219  -0.78700  -0.71040  -0.64500
 Alpha  occ. eigenvalues --   -0.55022  -0.49686  -0.47304  -0.46994  -0.46089
 Alpha  occ. eigenvalues --   -0.43911  -0.41672  -0.38227  -0.36782  -0.35810
 Alpha  occ. eigenvalues --   -0.34102  -0.31535  -0.30725  -0.30096
 Alpha virt. eigenvalues --    0.01947   0.04635   0.05495   0.07613   0.08753
 Alpha virt. eigenvalues --    0.09455   0.10096   0.10688   0.12015   0.12915
 Alpha virt. eigenvalues --    0.13408   0.14748   0.15327   0.15897   0.18857

 Mulliken atomic charges:
              1
     1  H    0.130226
     2  C   -0.389157
     3  C   -0.291276
     4  H    0.112448
     5  H    0.141040
     6  H    0.126035
     7  Si   0.566495
     8  H    0.121592
     9  O   -0.617586
    10  O   -0.329793
    11  H   -0.043682
    12  H    0.310583
    13  C   -0.213550
    14  H    0.129982
    15  H    0.118084
    16  H    0.128559
 Sum of Mulliken atomic charges =   0.00000

 Dipole moment (field-independent basis, Debye):
    X=             -0.3126    Y=             -1.3100    Z=             -0.4440  Tot=              1.4181
 Quadrupole moment (field-independent basis, Debye-Ang):
   XX=            -40.5619   YY=            -50.7296   ZZ=            -42.7738
   XY=             -1.8663   XZ=             -0.2668   YZ=             -1.8742

 Normal termination of Gaussian 09 at Fri Aug 10 03:31:03 2018.
