 Gaussian 09, Revision C.01,
 Gaussian 09:  EM64L-G09RevC.01 23-Sep-2011

 --------------------------------------
 #SP PBE1PBE/Def2TZVP geom=connectivity
 --------------------------------------

 99/5=1,9=1/99;
 --------------
 Structure: 264
 --------------
 Charge =  0 Multiplicity = 1

                         Standard orientation:
 ---------------------------------------------------------------------
 Center     Atomic      Atomic             Coordinates (Angstroms)
 Number     Number       Type             X           Y           Z
 ---------------------------------------------------------------------
      1          1           0       -3.234543   -1.160874   -0.586615
      2          6           0       -2.237817   -0.728124   -0.704576
      3          6           0       -1.624830   -0.352940    0.643967
      4          1           0       -2.346090    0.144317   -1.356066
      5          1           0       -1.619636   -1.459452   -1.231093
      6          1           0       -2.259451    0.373823    1.163075
      7         14           0        0.090308    0.360877    0.539112
      8          1           0       -1.574920   -1.232693    1.294360
      9          8           0        0.164552    1.892900   -0.459029
     10          8           0        1.029974   -0.827308   -0.095956
     11          1           0        0.628908    0.783023    1.857621
     12          1           0       -0.188158    1.859079   -1.348844
     13          6           0        2.423768   -0.717066   -0.265778
     14          1           0        2.801775   -1.671236   -0.637078
     15          1           0        2.926264   -0.489584    0.682120
     16          1           0        2.678607    0.065364   -0.986853
 ---------------------------------------------------------------------

 SCF Done:  E(RPBE1PBE) =  -560.047551721     A.U. after   13 cycles

 The electronic state is 1-A.
 Alpha  occ. eigenvalues --  -66.27358 -19.20883 -19.19007 -10.26780 -10.21921
 Alpha  occ. eigenvalues --  -10.21602  -5.34704  -3.68236  -3.68130  -3.67968
 Alpha  occ. eigenvalues --   -1.04679  -0.98896  -0.78613  -0.70951  -0.64419
 Alpha  occ. eigenvalues --   -0.55141  -0.50032  -0.47228  -0.46931  -0.46066
 Alpha  occ. eigenvalues --   -0.43852  -0.41562  -0.38163  -0.36786  -0.36112
 Alpha  occ. eigenvalues --   -0.34212  -0.31658  -0.30725  -0.30138
 Alpha virt. eigenvalues --    0.02085   0.04814   0.05602   0.07683   0.08806
 Alpha virt. eigenvalues --    0.09658   0.10214   0.10792   0.12071   0.13056
 Alpha virt. eigenvalues --    0.13456   0.14872   0.15434   0.15977   0.18930

 Mulliken atomic charges:
              1
     1  H    0.130195
     2  C   -0.389929
     3  C   -0.293194
     4  H    0.111262
     5  H    0.141250
     6  H    0.125220
     7  Si   0.563880
     8  H    0.120939
     9  O   -0.604921
    10  O   -0.331292
    11  H   -0.046835
    12  H    0.311727
    13  C   -0.213126
    14  H    0.129764
    15  H    0.117980
    16  H    0.127080
 Sum of Mulliken atomic charges =   0.00000

 Dipole moment (field-independent basis, Debye):
    X=             -0.3035    Y=             -1.1764    Z=             -0.5115  Tot=              1.3182
 Quadrupole moment (field-independent basis, Debye-Ang):
   XX=            -40.6663   YY=            -50.4673   ZZ=            -42.7905
   XY=             -1.8199   XZ=             -0.2565   YZ=             -1.8426

 Normal termination of Gaussian 09 at Fri Aug 10 01:24:20 2018.
