 Gaussian 09, Revision C.01,
 Gaussian 09:  EM64L-G09RevC.01 23-Sep-2011

 --------------------------------------
 #SP PBE1PBE/Def2TZVP geom=connectivity
 --------------------------------------

 99/5=1,9=1/99;
 --------------
 Structure: 282
 --------------
 Charge =  0 Multiplicity = 1

                         Standard orientation:
 ---------------------------------------------------------------------
 Center     Atomic      Atomic             Coordinates (Angstroms)
 Number     Number       Type             X           Y           Z
 ---------------------------------------------------------------------
      1          1           0       -3.235690   -1.153313   -0.603056
      2          6           0       -2.238564   -0.719580   -0.713801
      3          6           0       -1.625654   -0.366538    0.640743
      4          1           0       -2.345907    0.163263   -1.351281
      5          1           0       -1.620847   -1.442918   -1.251776
      6          1           0       -2.259812    0.352367    1.171233
      7         14           0        0.090118    0.347403    0.547800
      8          1           0       -1.576680   -1.256626    1.276994
      9          8           0        0.168124    1.925592   -0.444753
     10          8           0        1.028964   -0.831270   -0.105932
     11          1           0        0.628690    0.747944    1.873044
     12          1           0       -0.184353    1.906309   -1.335093
     13          6           0        2.422901   -0.719513   -0.273578
     14          1           0        2.800209   -1.667943   -0.659989
     15          1           0        2.925311   -0.507652    0.677978
     16          1           0        2.678613    0.074135   -0.981973
 ---------------------------------------------------------------------

 SCF Done:  E(RPBE1PBE) =  -560.042683841     A.U. after   13 cycles

 The electronic state is 1-A.
 Alpha  occ. eigenvalues --  -66.27692 -19.21051 -19.18740 -10.26847 -10.21963
 Alpha  occ. eigenvalues --  -10.21745  -5.35003  -3.68539  -3.68428  -3.68261
 Alpha  occ. eigenvalues --   -1.04799  -0.98259  -0.78696  -0.71038  -0.64496
 Alpha  occ. eigenvalues --   -0.55028  -0.49705  -0.47302  -0.46993  -0.46087
 Alpha  occ. eigenvalues --   -0.43908  -0.41667  -0.38225  -0.36780  -0.35826
 Alpha  occ. eigenvalues --   -0.34106  -0.31543  -0.30727  -0.30099
 Alpha virt. eigenvalues --    0.01956   0.04644   0.05500   0.07615   0.08756
 Alpha virt. eigenvalues --    0.09465   0.10101   0.10692   0.12019   0.12921
 Alpha virt. eigenvalues --    0.13411   0.14753   0.15332   0.15900   0.18860

 Mulliken atomic charges:
              1
     1  H    0.130222
     2  C   -0.389229
     3  C   -0.291317
     4  H    0.112432
     5  H    0.141037
     6  H    0.125998
     7  Si   0.566357
     8  H    0.121554
     9  O   -0.616936
    10  O   -0.329855
    11  H   -0.043826
    12  H    0.310553
    13  C   -0.213537
    14  H    0.129982
    15  H    0.118092
    16  H    0.128474
 Sum of Mulliken atomic charges =   0.00000

 Dipole moment (field-independent basis, Debye):
    X=             -0.3098    Y=             -1.3052    Z=             -0.4474  Tot=              1.4141
 Quadrupole moment (field-independent basis, Debye-Ang):
   XX=            -40.5662   YY=            -50.7222   ZZ=            -42.7732
   XY=             -1.8600   XZ=             -0.2693   YZ=             -1.8717

 Normal termination of Gaussian 09 at Fri Aug 10 03:24:23 2018.
