 Gaussian 09, Revision C.01,
 Gaussian 09:  EM64L-G09RevC.01 23-Sep-2011

 --------------------------------------
 #SP PBE1PBE/Def2TZVP geom=connectivity
 --------------------------------------

 99/5=1,9=1/99;
 --------------
 Structure: 234
 --------------
 Charge =  0 Multiplicity = 1

                         Standard orientation:
 ---------------------------------------------------------------------
 Center     Atomic      Atomic             Coordinates (Angstroms)
 Number     Number       Type             X           Y           Z
 ---------------------------------------------------------------------
      1          1           0       -3.233286   -1.172564   -0.557712
      2          6           0       -2.237053   -0.742282   -0.688201
      3          6           0       -1.623907   -0.328781    0.649018
      4          1           0       -2.346485    0.111423   -1.363869
      5          1           0       -1.618333   -1.487470   -1.194255
      6          1           0       -2.259066    0.411618    1.147802
      7         14           0        0.090454    0.383553    0.523433
      8          1           0       -1.572832   -1.189886    1.323821
      9          8           0        0.160896    1.838114   -0.483188
     10          8           0        1.031083   -0.821030   -0.078449
     11          1           0        0.629152    0.843079    1.829344
     12          1           0       -0.193049    1.778585   -1.371432
     13          6           0        2.424695   -0.714182   -0.251899
     14          1           0        2.803532   -1.678011   -0.596442
     15          1           0        2.927339   -0.459680    0.689025
     16          1           0        2.678439    0.047964   -0.994757
 ---------------------------------------------------------------------

 SCF Done:  E(RPBE1PBE) =  -560.054473768     A.U. after   13 cycles

 The electronic state is 1-A.
 Alpha  occ. eigenvalues --  -66.26763 -19.20599 -19.19444 -10.26668 -10.21858
 Alpha  occ. eigenvalues --  -10.21366  -5.34184  -3.67712  -3.67608  -3.67454
 Alpha  occ. eigenvalues --   -1.04497  -1.00008  -0.78480  -0.70807  -0.64296
 Alpha  occ. eigenvalues --   -0.55454  -0.50524  -0.47098  -0.46825  -0.46031
 Alpha  occ. eigenvalues --   -0.43757  -0.41370  -0.38149  -0.37001  -0.36379
 Alpha  occ. eigenvalues --   -0.34552  -0.31839  -0.30676  -0.30067
 Alpha virt. eigenvalues --    0.02222   0.05079   0.05760   0.07794   0.08870
 Alpha virt. eigenvalues --    0.09899   0.10442   0.10979   0.12153   0.13282
 Alpha virt. eigenvalues --    0.13551   0.15036   0.15632   0.16125   0.19049

 Mulliken atomic charges:
              1
     1  H    0.130187
     2  C   -0.391078
     3  C   -0.296746
     4  H    0.109322
     5  H    0.141651
     6  H    0.123944
     7  Si   0.558032
     8  H    0.119956
     9  O   -0.582764
    10  O   -0.333728
    11  H   -0.052077
    12  H    0.313795
    13  C   -0.212435
    14  H    0.129406
    15  H    0.117809
    16  H    0.124725
 Sum of Mulliken atomic charges =   0.00000

 Dipole moment (field-independent basis, Debye):
    X=             -0.2986    Y=             -0.9699    Z=             -0.6262  Tot=              1.1925
 Quadrupole moment (field-independent basis, Debye-Ang):
   XX=            -40.8340   YY=            -50.0590   ZZ=            -42.8195
   XY=             -1.7637   XZ=             -0.2363   YZ=             -1.8008

 Normal termination of Gaussian 09 at Fri Aug 10 05:37:35 2018.
