 Gaussian 09, Revision C.01,
 Gaussian 09:  EM64L-G09RevC.01 23-Sep-2011

 --------------------------------------
 #SP PBE1PBE/Def2TZVP geom=connectivity
 --------------------------------------

 99/5=1,9=1/99;
 --------------
 Structure: 241
 --------------
 Charge =  0 Multiplicity = 1

                         Standard orientation:
 ---------------------------------------------------------------------
 Center     Atomic      Atomic             Coordinates (Angstroms)
 Number     Number       Type             X           Y           Z
 ---------------------------------------------------------------------
      1          1           0       -3.233625   -1.169840   -0.564527
      2          6           0       -2.237268   -0.738971   -0.692093
      3          6           0       -1.624150   -0.334408    0.647870
      4          1           0       -2.346410    0.119174   -1.362159
      5          1           0       -1.618690   -1.480985   -1.202961
      6          1           0       -2.259166    0.402869    1.151435
      7         14           0        0.090409    0.378288    0.527128
      8          1           0       -1.573366   -1.199932    1.317016
      9          8           0        0.161920    1.851003   -0.477545
     10          8           0        1.030787   -0.822566   -0.082547
     11          1           0        0.629095    0.829101    1.836077
     12          1           0       -0.191951    1.797392   -1.366195
     13          6           0        2.424443   -0.714946   -0.255155
     14          1           0        2.803065   -1.676594   -0.605973
     15          1           0        2.927059   -0.466751    0.687467
     16          1           0        2.678460    0.051989   -0.992974
 ---------------------------------------------------------------------

 SCF Done:  E(RPBE1PBE) =  -560.053021257     A.U. after   13 cycles

 The electronic state is 1-A.
 Alpha  occ. eigenvalues --  -66.26906 -19.20665 -19.19346 -10.26694 -10.21873
 Alpha  occ. eigenvalues --  -10.21422  -5.34307  -3.67836  -3.67732  -3.67576
 Alpha  occ. eigenvalues --   -1.04536  -0.99743  -0.78512  -0.70841  -0.64325
 Alpha  occ. eigenvalues --   -0.55363  -0.50416  -0.47128  -0.46849  -0.46040
 Alpha  occ. eigenvalues --   -0.43779  -0.41415  -0.38137  -0.36929  -0.36348
 Alpha  occ. eigenvalues --   -0.34453  -0.31804  -0.30693  -0.30095
 Alpha virt. eigenvalues --    0.02196   0.05020   0.05725   0.07768   0.08857
 Alpha virt. eigenvalues --    0.09852   0.10386   0.10933   0.12134   0.13233
 Alpha virt. eigenvalues --    0.13523   0.15003   0.15581   0.16087   0.19021

 Mulliken atomic charges:
              1
     1  H    0.130189
     2  C   -0.390807
     3  C   -0.295883
     4  H    0.109772
     5  H    0.141560
     6  H    0.124249
     7  Si   0.559531
     8  H    0.120194
     9  O   -0.588120
    10  O   -0.333156
    11  H   -0.050852
    12  H    0.313295
    13  C   -0.212589
    14  H    0.129488
    15  H    0.117849
    16  H    0.125281
 Sum of Mulliken atomic charges =   0.00000

 Dipole moment (field-independent basis, Debye):
    X=             -0.3004    Y=             -1.0176    Z=             -0.5988  Tot=              1.2184
 Quadrupole moment (field-independent basis, Debye-Ang):
   XX=            -40.7946   YY=            -50.1536   ZZ=            -42.8139
   XY=             -1.7777   XZ=             -0.2408   YZ=             -1.8093

 Normal termination of Gaussian 09 at Thu Aug  9 22:46:05 2018.
