 Gaussian 09, Revision C.01,
 Gaussian 09:  EM64L-G09RevC.01 23-Sep-2011

 --------------------------------------
 #SP PBE1PBE/Def2TZVP geom=connectivity
 --------------------------------------

 99/5=1,9=1/99;
 --------------
 Structure: 238
 --------------
 Charge =  0 Multiplicity = 1

                         Standard orientation:
 ---------------------------------------------------------------------
 Center     Atomic      Atomic             Coordinates (Angstroms)
 Number     Number       Type             X           Y           Z
 ---------------------------------------------------------------------
      1          1           0       -3.233420   -1.171222   -0.561330
      2          6           0       -2.237132   -0.740601   -0.690271
      3          6           0       -1.624005   -0.331829    0.648410
      4          1           0       -2.346434    0.115463   -1.362968
      5          1           0       -1.618471   -1.484092   -1.198887
      6          1           0       -2.259105    0.406901    1.149737
      7         14           0        0.090442    0.380744    0.525390
      8          1           0       -1.573061   -1.195284    1.320212
      9          8           0        0.161190    1.845038   -0.480030
     10          8           0        1.030966   -0.821842   -0.080637
     11          1           0        0.629128    0.835659    1.832919
     12          1           0       -0.191877    1.788904   -1.369599
     13          6           0        2.424598   -0.714549   -0.253645
     14          1           0        2.803343   -1.677215   -0.601523
     15          1           0        2.927224   -0.463382    0.688184
     16          1           0        2.678465    0.050151   -0.993832
 ---------------------------------------------------------------------

 SCF Done:  E(RPBE1PBE) =  -560.053715280     A.U. after   13 cycles

 The electronic state is 1-A.
 Alpha  occ. eigenvalues --  -66.26839 -19.20634 -19.19397 -10.26683 -10.21864
 Alpha  occ. eigenvalues --  -10.21394  -5.34249  -3.67777  -3.67673  -3.67518
 Alpha  occ. eigenvalues --   -1.04517  -0.99850  -0.78495  -0.70825  -0.64309
 Alpha  occ. eigenvalues --   -0.55401  -0.50464  -0.47114  -0.46838  -0.46033
 Alpha  occ. eigenvalues --   -0.43767  -0.41392  -0.38138  -0.36960  -0.36363
 Alpha  occ. eigenvalues --   -0.34497  -0.31821  -0.30684  -0.30080
 Alpha virt. eigenvalues --    0.02205   0.05048   0.05741   0.07780   0.08860
 Alpha virt. eigenvalues --    0.09875   0.10414   0.10955   0.12144   0.13257
 Alpha virt. eigenvalues --    0.13535   0.15018   0.15600   0.16105   0.19033

 Mulliken atomic charges:
              1
     1  H    0.130180
     2  C   -0.390951
     3  C   -0.296233
     4  H    0.109568
     5  H    0.141587
     6  H    0.124092
     7  Si   0.558915
     8  H    0.120066
     9  O   -0.585835
    10  O   -0.333423
    11  H   -0.051416
    12  H    0.313681
    13  C   -0.212515
    14  H    0.129453
    15  H    0.117836
    16  H    0.124996
 Sum of Mulliken atomic charges =   0.00000

 Dipole moment (field-independent basis, Debye):
    X=             -0.2976    Y=             -0.9945    Z=             -0.6134  Tot=              1.2057
 Quadrupole moment (field-independent basis, Debye-Ang):
   XX=            -40.8155   YY=            -50.1087   ZZ=            -42.8123
   XY=             -1.7686   XZ=             -0.2406   YZ=             -1.8094

 Normal termination of Gaussian 09 at Fri Aug 10 06:05:07 2018.
