 Gaussian 09, Revision C.01,
 Gaussian 09:  EM64L-G09RevC.01 23-Sep-2011

 --------------------------------------
 #SP PBE1PBE/Def2TZVP geom=connectivity
 --------------------------------------

 99/5=1,9=1/99;
 --------------
 Structure: 222
 --------------
 Charge =  0 Multiplicity = 1

                         Standard orientation:
 ---------------------------------------------------------------------
 Center     Atomic      Atomic             Coordinates (Angstroms)
 Number     Number       Type             X           Y           Z
 ---------------------------------------------------------------------
      1          1           0       -3.232555   -1.177746   -0.545222
      2          6           0       -2.236573   -0.748537   -0.681042
      3          6           0       -1.623390   -0.318754    0.651015
      4          1           0       -2.346580    0.096969   -1.366850
      5          1           0       -1.617559   -1.499400   -1.178270
      6          1           0       -2.258841    0.427226    1.141034
      7         14           0        0.090574    0.392921    0.516584
      8          1           0       -1.571735   -1.171700    1.336058
      9          8           0        0.158531    1.815427   -0.493139
     10          8           0        1.031720   -0.818283   -0.071034
     11          1           0        0.629280    0.868313    1.816800
     12          1           0       -0.194640    1.745488   -1.380661
     13          6           0        2.425243   -0.712791   -0.246023
     14          1           0        2.804519   -1.680474   -0.579088
     15          1           0        2.927932   -0.446792    0.691691
     16          1           0        2.678446    0.040549   -0.997992
 ---------------------------------------------------------------------

 SCF Done:  E(RPBE1PBE) =  -560.056764305     A.U. after   12 cycles

 The electronic state is 1-A.
 Alpha  occ. eigenvalues --  -66.26505 -19.20483 -19.19612 -10.26625 -10.21830
 Alpha  occ. eigenvalues --  -10.21265  -5.33963  -3.67490  -3.67386  -3.67235
 Alpha  occ. eigenvalues --   -1.04436  -1.00487  -0.78423  -0.70750  -0.64244
 Alpha  occ. eigenvalues --   -0.55643  -0.50704  -0.47046  -0.46782  -0.46014
 Alpha  occ. eigenvalues --   -0.43716  -0.41286  -0.38210  -0.37127  -0.36404
 Alpha  occ. eigenvalues --   -0.34754  -0.31888  -0.30641  -0.30006
 Alpha virt. eigenvalues --    0.02260   0.05182   0.05821   0.07839   0.08893
 Alpha virt. eigenvalues --    0.09971   0.10541   0.11063   0.12186   0.13357
 Alpha virt. eigenvalues --    0.13615   0.15089   0.15726   0.16198   0.19098

 Mulliken atomic charges:
              1
     1  H    0.130178
     2  C   -0.391566
     3  C   -0.298321
     4  H    0.108542
     5  H    0.141797
     6  H    0.123396
     7  Si   0.555154
     8  H    0.119516
     9  O   -0.572889
    10  O   -0.334754
    11  H   -0.054285
    12  H    0.314663
    13  C   -0.212185
    14  H    0.129275
    15  H    0.117757
    16  H    0.123723
 Sum of Mulliken atomic charges =   0.00000

 Dipole moment (field-independent basis, Debye):
    X=             -0.2931    Y=             -0.8870    Z=             -0.6769  Tot=              1.1536
 Quadrupole moment (field-independent basis, Debye-Ang):
   XX=            -40.9034   YY=            -49.8946   ZZ=            -42.8277
   XY=             -1.7368   XZ=             -0.2303   YZ=             -1.7894

 Normal termination of Gaussian 09 at Fri Aug 10 04:14:54 2018.
