 Gaussian 09, Revision C.01,
 Gaussian 09:  EM64L-G09RevC.01 23-Sep-2011

 --------------------------------------
 #SP PBE1PBE/Def2TZVP geom=connectivity
 --------------------------------------

 99/5=1,9=1/99;
 --------------
 Structure: 216
 --------------
 Charge =  0 Multiplicity = 1

                         Standard orientation:
 ---------------------------------------------------------------------
 Center     Atomic      Atomic             Coordinates (Angstroms)
 Number     Number       Type             X           Y           Z
 ---------------------------------------------------------------------
      1          1           0       -3.232390   -1.179826   -0.539112
      2          6           0       -2.236483   -0.751269   -0.677519
      3          6           0       -1.623275   -0.313581    0.651951
      4          1           0       -2.346666    0.090180   -1.368270
      5          1           0       -1.617388   -1.504944   -1.170373
      6          1           0       -2.258806    0.435165    1.137626
      7         14           0        0.090571    0.397554    0.513227
      8          1           0       -1.571443   -1.162484    1.341985
      9          8           0        0.158100    1.803852   -0.498157
     10          8           0        1.031863   -0.816935   -0.067337
     11          1           0        0.629293    0.880651    1.810592
     12          1           0       -0.195120    1.728650   -1.385230
     13          6           0        2.425357   -0.712260   -0.243038
     14          1           0        2.804759   -1.681823   -0.570444
     15          1           0        2.928069   -0.440685    0.693064
     16          1           0        2.678394    0.036692   -0.999433
 ---------------------------------------------------------------------

 SCF Done:  E(RPBE1PBE) =  -560.057762257     A.U. after   12 cycles

 The electronic state is 1-A.
 Alpha  occ. eigenvalues --  -66.26372 -19.20423 -19.19695 -10.26601 -10.21818
 Alpha  occ. eigenvalues --  -10.21215  -5.33851  -3.67377  -3.67273  -3.67124
 Alpha  occ. eigenvalues --   -1.04408  -1.00724  -0.78396  -0.70719  -0.64220
 Alpha  occ. eigenvalues --   -0.55749  -0.50782  -0.47019  -0.46760  -0.46008
 Alpha  occ. eigenvalues --   -0.43696  -0.41245  -0.38266  -0.37179  -0.36411
 Alpha  occ. eigenvalues --   -0.34865  -0.31902  -0.30619  -0.29972
 Alpha virt. eigenvalues --    0.02274   0.05231   0.05851   0.07861   0.08904
 Alpha virt. eigenvalues --    0.10003   0.10587   0.11107   0.12203   0.13387
 Alpha virt. eigenvalues --    0.13656   0.15112   0.15772   0.16237   0.19123

 Mulliken atomic charges:
              1
     1  H    0.130180
     2  C   -0.391807
     3  C   -0.299155
     4  H    0.108152
     5  H    0.141884
     6  H    0.123124
     7  Si   0.553521
     8  H    0.119312
     9  O   -0.567767
    10  O   -0.335283
    11  H   -0.055391
    12  H    0.315134
    13  C   -0.212048
    14  H    0.129201
    15  H    0.117717
    16  H    0.123225
 Sum of Mulliken atomic charges =   0.00000

 Dipole moment (field-independent basis, Debye):
    X=             -0.2924    Y=             -0.8459    Z=             -0.7020  Tot=              1.1375
 Quadrupole moment (field-independent basis, Debye-Ang):
   XX=            -40.9390   YY=            -49.8125   ZZ=            -42.8316
   XY=             -1.7258   XZ=             -0.2267   YZ=             -1.7833

 Normal termination of Gaussian 09 at Fri Aug 10 03:36:47 2018.
