 Gaussian 09, Revision C.01,
 Gaussian 09:  EM64L-G09RevC.01 23-Sep-2011

 --------------------------------------
 #SP PBE1PBE/Def2TZVP geom=connectivity
 --------------------------------------

 99/5=1,9=1/99;
 --------------
 Structure: 229
 --------------
 Charge =  0 Multiplicity = 1

                         Standard orientation:
 ---------------------------------------------------------------------
 Center     Atomic      Atomic             Coordinates (Angstroms)
 Number     Number       Type             X           Y           Z
 ---------------------------------------------------------------------
      1          1           0       -3.232885   -1.175001   -0.552277
      2          6           0       -2.236782   -0.745131   -0.685092
      3          6           0       -1.623622   -0.324533    0.649905
      4          1           0       -2.346511    0.105028   -1.365168
      5          1           0       -1.617907   -1.492764   -1.187334
      6          1           0       -2.258935    0.418270    1.144904
      7         14           0        0.090533    0.387607    0.520463
      8          1           0       -1.572248   -1.182113    1.329160
      9          8           0        0.159525    1.828414   -0.487350
     10          8           0        1.031434   -0.819825   -0.075255
     11          1           0        0.629229    0.854046    1.823920
     12          1           0       -0.193647    1.764435   -1.376348
     13          6           0        2.425000   -0.713499   -0.249391
     14          1           0        2.804067   -1.678999   -0.588966
     15          1           0        2.927664   -0.453984    0.690152
     16          1           0        2.678465    0.044853   -0.996216
 ---------------------------------------------------------------------

 SCF Done:  E(RPBE1PBE) =  -560.055511584     A.U. after   13 cycles

 The electronic state is 1-A.
 Alpha  occ. eigenvalues --  -66.26652 -19.20549 -19.19524 -10.26650 -10.21845
 Alpha  occ. eigenvalues --  -10.21320  -5.34088  -3.67615  -3.67512  -3.67359
 Alpha  occ. eigenvalues --   -1.04469  -1.00196  -0.78454  -0.70782  -0.64272
 Alpha  occ. eigenvalues --   -0.55525  -0.50600  -0.47075  -0.46807  -0.46022
 Alpha  occ. eigenvalues --   -0.43738  -0.41332  -0.38166  -0.37056  -0.36391
 Alpha  occ. eigenvalues --   -0.34634  -0.31863  -0.30661  -0.30040
 Alpha virt. eigenvalues --    0.02234   0.05124   0.05787   0.07813   0.08877
 Alpha virt. eigenvalues --    0.09931   0.10487   0.11015   0.12168   0.13317
 Alpha virt. eigenvalues --    0.13575   0.15060   0.15668   0.16156   0.19069

 Mulliken atomic charges:
              1
     1  H    0.130177
     2  C   -0.391302
     3  C   -0.297375
     4  H    0.108979
     5  H    0.141703
     6  H    0.123697
     7  Si   0.556874
     8  H    0.119750
     9  O   -0.578742
    10  O   -0.334167
    11  H   -0.053021
    12  H    0.314335
    13  C   -0.212327
    14  H    0.129352
    15  H    0.117793
    16  H    0.124275
 Sum of Mulliken atomic charges =   0.00000

 Dipole moment (field-independent basis, Debye):
    X=             -0.2946    Y=             -0.9335    Z=             -0.6496  Tot=              1.1748
 Quadrupole moment (field-independent basis, Debye-Ang):
   XX=            -40.8657   YY=            -49.9882   ZZ=            -42.8197
   XY=             -1.7501   XZ=             -0.2345   YZ=             -1.7988

 Normal termination of Gaussian 09 at Fri Aug 10 05:03:08 2018.
