 Gaussian 09, Revision C.01,
 Gaussian 09:  EM64L-G09RevC.01 23-Sep-2011

 --------------------------------------
 #SP PBE1PBE/Def2TZVP geom=connectivity
 --------------------------------------

 99/5=1,9=1/99;
 --------------
 Structure: 299
 --------------
 Charge =  0 Multiplicity = 1

                         Standard orientation:
 ---------------------------------------------------------------------
 Center     Atomic      Atomic             Coordinates (Angstroms)
 Number     Number       Type             X           Y           Z
 ---------------------------------------------------------------------
      1          1           0       -3.236355   -1.147106   -0.617649
      2          6           0       -2.238954   -0.712398   -0.721901
      3          6           0       -1.626137   -0.379332    0.637734
      4          1           0       -2.345646    0.179630   -1.346575
      5          1           0       -1.621538   -1.428243   -1.270147
      6          1           0       -2.259995    0.332199    1.178427
      7         14           0        0.090069    0.334880    0.555484
      8          1           0       -1.577818   -1.278552    1.261061
      9          8           0        0.170048    1.956303   -0.431531
     10          8           0        1.028375   -0.834765   -0.115021
     11          1           0        0.628581    0.715908    1.886493
     12          1           0       -0.182245    1.950099   -1.322132
     13          6           0        2.422413   -0.721408   -0.280740
     14          1           0        2.799257   -1.664372   -0.680742
     15          1           0        2.924737   -0.523617    0.673885
     16          1           0        2.678741    0.082249   -0.977534
 ---------------------------------------------------------------------

 SCF Done:  E(RPBE1PBE) =  -560.037740642     A.U. after   14 cycles

 The electronic state is 1-A.
 Alpha  occ. eigenvalues --  -66.27991 -19.21212 -19.18486 -10.26913 -10.22001
 Alpha  occ. eigenvalues --  -10.21875  -5.35275  -3.68816  -3.68699  -3.68528
 Alpha  occ. eigenvalues --   -1.04919  -0.97685  -0.78772  -0.71122  -0.64568
 Alpha  occ. eigenvalues --   -0.54966  -0.49402  -0.47371  -0.47051  -0.46100
 Alpha  occ. eigenvalues --   -0.43959  -0.41757  -0.38294  -0.36807  -0.35544
 Alpha  occ. eigenvalues --   -0.34061  -0.31475  -0.30706  -0.29979
 Alpha virt. eigenvalues --    0.01799   0.04480   0.05401   0.07550   0.08690
 Alpha virt. eigenvalues --    0.09273   0.10015   0.10602   0.11967   0.12800
 Alpha virt. eigenvalues --    0.13370   0.14631   0.15252   0.15836   0.18797

 Mulliken atomic charges:
              1
     1  H    0.130248
     2  C   -0.388584
     3  C   -0.289660
     4  H    0.113513
     5  H    0.140836
     6  H    0.126717
     7  Si   0.568216
     8  H    0.122094
     9  O   -0.627589
    10  O   -0.328474
    11  H   -0.041049
    12  H    0.309498
    13  C   -0.213963
    14  H    0.130204
    15  H    0.118222
    16  H    0.129770
 Sum of Mulliken atomic charges =   0.00000

 Dipole moment (field-independent basis, Debye):
    X=             -0.3128    Y=             -1.4290    Z=             -0.3905  Tot=              1.5141
 Quadrupole moment (field-independent basis, Debye-Ang):
   XX=            -40.4700   YY=            -50.9694   ZZ=            -42.7560
   XY=             -1.8946   XZ=             -0.2799   YZ=             -1.9015

 Normal termination of Gaussian 09 at Fri Aug 10 05:24:17 2018.
