 Gaussian 09, Revision C.01,
 Gaussian 09:  EM64L-G09RevC.01 23-Sep-2011

 --------------------------------------
 #SP PBE1PBE/Def2TZVP geom=connectivity
 --------------------------------------

 99/5=1,9=1/99;
 --------------
 Structure: 211
 --------------
 Charge =  0 Multiplicity = 1

                         Standard orientation:
 ---------------------------------------------------------------------
 Center     Atomic      Atomic             Coordinates (Angstroms)
 Number     Number       Type             X           Y           Z
 ---------------------------------------------------------------------
      1          1           0       -3.232291   -1.181732   -0.533686
      2          6           0       -2.236438   -0.753800   -0.674400
      3          6           0       -1.623192   -0.309084    0.652718
      4          1           0       -2.346754    0.084005   -1.369546
      5          1           0       -1.617293   -1.509982   -1.163337
      6          1           0       -2.258774    0.442130    1.134502
      7         14           0        0.090569    0.401497    0.510159
      8          1           0       -1.571227   -1.154352    1.347189
      9          8           0        0.157843    1.794453   -0.502218
     10          8           0        1.031953   -0.815919   -0.064090
     11          1           0        0.629321    0.891445    1.804940
     12          1           0       -0.195497    1.714407   -1.389847
     13          6           0        2.425425   -0.712017   -0.240427
     14          1           0        2.804910   -1.683243   -0.562770
     15          1           0        2.928168   -0.435486    0.694207
     16          1           0        2.678335    0.032986   -1.000754
 ---------------------------------------------------------------------

 SCF Done:  E(RPBE1PBE) =  -560.058519400     A.U. after   12 cycles

 The electronic state is 1-A.
 Alpha  occ. eigenvalues --  -66.26258 -19.20374 -19.19775 -10.26583 -10.21807
 Alpha  occ. eigenvalues --  -10.21174  -5.33755  -3.67281  -3.67177  -3.67028
 Alpha  occ. eigenvalues --   -1.04388  -1.00904  -0.78374  -0.70695  -0.64199
 Alpha  occ. eigenvalues --   -0.55832  -0.50838  -0.46996  -0.46743  -0.46003
 Alpha  occ. eigenvalues --   -0.43679  -0.41207  -0.38327  -0.37211  -0.36416
 Alpha  occ. eigenvalues --   -0.34962  -0.31910  -0.30601  -0.29941
 Alpha virt. eigenvalues --    0.02275   0.05271   0.05875   0.07880   0.08909
 Alpha virt. eigenvalues --    0.10027   0.10624   0.11144   0.12216   0.13409
 Alpha virt. eigenvalues --    0.13694   0.15131   0.15805   0.16269   0.19142

 Mulliken atomic charges:
              1
     1  H    0.130183
     2  C   -0.392014
     3  C   -0.299861
     4  H    0.107816
     5  H    0.141956
     6  H    0.122905
     7  Si   0.552004
     8  H    0.119145
     9  O   -0.563453
    10  O   -0.335734
    11  H   -0.056358
    12  H    0.315701
    13  C   -0.211931
    14  H    0.129144
    15  H    0.117698
    16  H    0.122798
 Sum of Mulliken atomic charges =   0.00000

 Dipole moment (field-independent basis, Debye):
    X=             -0.2918    Y=             -0.8127    Z=             -0.7254  Tot=              1.1277
 Quadrupole moment (field-independent basis, Debye-Ang):
   XX=            -40.9695   YY=            -49.7482   ZZ=            -42.8332
   XY=             -1.7172   XZ=             -0.2242   YZ=             -1.7810

 Normal termination of Gaussian 09 at Fri Aug 10 03:05:00 2018.
