 Gaussian 09, Revision C.01,
 Gaussian 09:  EM64L-G09RevC.01 23-Sep-2011

 --------------------------------------
 #SP PBE1PBE/Def2TZVP geom=connectivity
 --------------------------------------

 99/5=1,9=1/99;
 -------------
 Structure: 20
 -------------
 Charge =  0 Multiplicity = 1

                         Standard orientation:
 ---------------------------------------------------------------------
 Center     Atomic      Atomic             Coordinates (Angstroms)
 Number     Number       Type             X           Y           Z
 ---------------------------------------------------------------------
      1          1           0       -3.225192   -1.245617   -0.297217
      2          6           0       -2.231971   -0.853848   -0.531049
      3          6           0       -1.618078   -0.128140    0.665432
      4          1           0       -2.348366   -0.187894   -1.391439
      5          1           0       -1.609906   -1.695359   -0.845860
      6          1           0       -2.256569    0.706888    0.974398
      7         14           0        0.091521    0.542498    0.365864
      8          1           0       -1.559995   -0.801801    1.526986
      9          8           0        0.136630    1.429512   -0.639450
     10          8           0        1.038095   -0.766229    0.067036
     11          1           0        0.630605    1.304967    1.521195
     12          1           0       -0.219145    1.156596   -1.486054
     13          6           0        2.430583   -0.696594   -0.132420
     14          1           0        2.814526   -1.712881   -0.237028
     15          1           0        2.933977   -0.220957    0.717947
     16          1           0        2.677756   -0.133681   -1.037475
 ---------------------------------------------------------------------

 SCF Done:  E(RPBE1PBE) =  -559.961547498     A.U. after   12 cycles

 The electronic state is 1-A.
 Alpha  occ. eigenvalues --  -66.20527 -19.21249 -19.18604 -10.25983 -10.21503
 Alpha  occ. eigenvalues --  -10.19571  -5.29925  -3.63737  -3.63118  -3.62955
 Alpha  occ. eigenvalues --   -1.11451  -1.02535  -0.77610  -0.69891  -0.63939
 Alpha  occ. eigenvalues --   -0.61535  -0.51519  -0.47522  -0.46674  -0.45932
 Alpha  occ. eigenvalues --   -0.43635  -0.42872  -0.41452  -0.39454  -0.36254
 Alpha  occ. eigenvalues --   -0.35629  -0.31055  -0.29621  -0.28367
 Alpha virt. eigenvalues --    0.01766   0.06192   0.06659   0.08497   0.09137
 Alpha virt. eigenvalues --    0.10546   0.11420   0.12093   0.12567   0.13499
 Alpha virt. eigenvalues --    0.15288   0.15681   0.17097   0.17712   0.19795

 Mulliken atomic charges:
              1
     1  H    0.130844
     2  C   -0.401298
     3  C   -0.339699
     4  H    0.096621
     5  H    0.145271
     6  H    0.114652
     7  Si   0.450177
     8  H    0.113204
     9  O   -0.323962
    10  O   -0.363193
    11  H   -0.099021
    12  H    0.335427
    13  C   -0.211595
    14  H    0.127635
    15  H    0.117690
    16  H    0.107247
 Sum of Mulliken atomic charges =   0.00000

 Dipole moment (field-independent basis, Debye):
    X=             -0.2565    Y=              0.1072    Z=             -1.7234  Tot=              1.7457
 Quadrupole moment (field-independent basis, Debye-Ang):
   XX=            -41.9378   YY=            -47.8216   ZZ=            -42.8240
   XY=             -1.4327   XZ=             -0.1398   YZ=             -1.8428

 Normal termination of Gaussian 09 at Thu Aug  9 23:58:03 2018.
