 Gaussian 09, Revision C.01,
 Gaussian 09:  EM64L-G09RevC.01 23-Sep-2011

 --------------------------------------
 #SP PBE1PBE/Def2TZVP geom=connectivity
 --------------------------------------

 99/5=1,9=1/99;
 --------------
 Structure: 221
 --------------
 Charge =  0 Multiplicity = 1

                         Standard orientation:
 ---------------------------------------------------------------------
 Center     Atomic      Atomic             Coordinates (Angstroms)
 Number     Number       Type             X           Y           Z
 ---------------------------------------------------------------------
      1          1           0       -3.232814   -1.177614   -0.544277
      2          6           0       -2.236776   -0.748664   -0.680507
      3          6           0       -1.623560   -0.317635    0.651133
      4          1           0       -2.346666    0.096174   -1.367156
      5          1           0       -1.617848   -1.500098   -1.176979
      6          1           0       -2.258926    0.428910    1.140400
      7         14           0        0.090495    0.393691    0.516024
      8          1           0       -1.572024   -1.169908    1.337023
      9          8           0        0.159529    1.813517   -0.493909
     10          8           0        1.031499   -0.818214   -0.070376
     11          1           0        0.629239    0.870306    1.815776
     12          1           0       -0.194619    1.742200   -1.382229
     13          6           0        2.425037   -0.713071   -0.245447
     14          1           0        2.804198   -1.681132   -0.577545
     15          1           0        2.927745   -0.446204    0.692011
     16          1           0        2.678348    0.039490   -0.998159
 ---------------------------------------------------------------------

 SCF Done:  E(RPBE1PBE) =  -560.056942018     A.U. after   12 cycles

 The electronic state is 1-A.
 Alpha  occ. eigenvalues --  -66.26481 -19.20471 -19.19639 -10.26619 -10.21830
 Alpha  occ. eigenvalues --  -10.21259  -5.33943  -3.67469  -3.67366  -3.67215
 Alpha  occ. eigenvalues --   -1.04429  -1.00501  -0.78421  -0.70743  -0.64241
 Alpha  occ. eigenvalues --   -0.55646  -0.50706  -0.47039  -0.46777  -0.46015
 Alpha  occ. eigenvalues --   -0.43713  -0.41278  -0.38221  -0.37136  -0.36406
 Alpha  occ. eigenvalues --   -0.34770  -0.31887  -0.30637  -0.30000
 Alpha virt. eigenvalues --    0.02252   0.05189   0.05826   0.07843   0.08891
 Alpha virt. eigenvalues --    0.09976   0.10547   0.11071   0.12189   0.13363
 Alpha virt. eigenvalues --    0.13621   0.15093   0.15725   0.16203   0.19101

 Mulliken atomic charges:
              1
     1  H    0.130188
     2  C   -0.391604
     3  C   -0.298471
     4  H    0.108458
     5  H    0.141832
     6  H    0.123365
     7  Si   0.554742
     8  H    0.119510
     9  O   -0.572138
    10  O   -0.334852
    11  H   -0.054484
    12  H    0.314949
    13  C   -0.212134
    14  H    0.129253
    15  H    0.117741
    16  H    0.123644
 Sum of Mulliken atomic charges =   0.00000

 Dipole moment (field-independent basis, Debye):
    X=             -0.2961    Y=             -0.8806    Z=             -0.6818  Tot=              1.1524
 Quadrupole moment (field-independent basis, Debye-Ang):
   XX=            -40.9111   YY=            -49.8832   ZZ=            -42.8276
   XY=             -1.7389   XZ=             -0.2286   YZ=             -1.7886

 Normal termination of Gaussian 09 at Fri Aug 10 04:08:41 2018.
