 Gaussian 09, Revision C.01,
 Gaussian 09:  EM64L-G09RevC.01 23-Sep-2011

 --------------------------------------
 #SP PBE1PBE/Def2TZVP geom=connectivity
 --------------------------------------

 99/5=1,9=1/99;
 --------------
 Structure: 228
 --------------
 Charge =  0 Multiplicity = 1

                         Standard orientation:
 ---------------------------------------------------------------------
 Center     Atomic      Atomic             Coordinates (Angstroms)
 Number     Number       Type             X           Y           Z
 ---------------------------------------------------------------------
      1          1           0       -3.233146   -1.174892   -0.551310
      2          6           0       -2.236986   -0.745286   -0.684550
      3          6           0       -1.623797   -0.323387    0.650023
      4          1           0       -2.346593    0.104184   -1.365506
      5          1           0       -1.618196   -1.493517   -1.186007
      6          1           0       -2.259024    0.420008    1.144242
      7         14           0        0.090451    0.388400    0.519877
      8          1           0       -1.572545   -1.180270    1.330165
      9          8           0        0.160528    1.826480   -0.488234
     10          8           0        1.031210   -0.819768   -0.074575
     11          1           0        0.629184    0.856118    1.822862
     12          1           0       -0.193547    1.761234   -1.377050
     13          6           0        2.424792   -0.713799   -0.248795
     14          1           0        2.803743   -1.679698   -0.587365
     15          1           0        2.927472   -0.453377    0.690489
     16          1           0        2.678368    0.043748   -0.996398
 ---------------------------------------------------------------------

 SCF Done:  E(RPBE1PBE) =  -560.055707511     A.U. after   13 cycles

 The electronic state is 1-A.
 Alpha  occ. eigenvalues --  -66.26629 -19.20538 -19.19543 -10.26645 -10.21845
 Alpha  occ. eigenvalues --  -10.21315  -5.34069  -3.67596  -3.67492  -3.67340
 Alpha  occ. eigenvalues --   -1.04462  -1.00232  -0.78452  -0.70776  -0.64270
 Alpha  occ. eigenvalues --   -0.55536  -0.50610  -0.47070  -0.46802  -0.46024
 Alpha  occ. eigenvalues --   -0.43736  -0.41325  -0.38175  -0.37068  -0.36395
 Alpha  occ. eigenvalues --   -0.34650  -0.31865  -0.30659  -0.30036
 Alpha virt. eigenvalues --    0.02234   0.05133   0.05792   0.07817   0.08879
 Alpha virt. eigenvalues --    0.09937   0.10492   0.11023   0.12170   0.13324
 Alpha virt. eigenvalues --    0.13580   0.15065   0.15672   0.16161   0.19073

 Mulliken atomic charges:
              1
     1  H    0.130188
     2  C   -0.391330
     3  C   -0.297547
     4  H    0.108908
     5  H    0.141738
     6  H    0.123671
     7  Si   0.556485
     8  H    0.119750
     9  O   -0.577826
    10  O   -0.334264
    11  H   -0.053231
    12  H    0.314427
    13  C   -0.212282
    14  H    0.129331
    15  H    0.117778
    16  H    0.124204
 Sum of Mulliken atomic charges =   0.00000

 Dipole moment (field-independent basis, Debye):
    X=             -0.2978    Y=             -0.9272    Z=             -0.6534  Tot=              1.1727
 Quadrupole moment (field-independent basis, Debye-Ang):
   XX=            -40.8717   YY=            -49.9757   ZZ=            -42.8224
   XY=             -1.7525   XZ=             -0.2330   YZ=             -1.7960

 Normal termination of Gaussian 09 at Fri Aug 10 04:56:15 2018.
