 Gaussian 09, Revision C.01,
 Gaussian 09:  EM64L-G09RevC.01 23-Sep-2011

 --------------------------------------
 #SP PBE1PBE/Def2TZVP geom=connectivity
 --------------------------------------

 99/5=1,9=1/99;
 --------------
 Structure: 294
 --------------
 Charge =  0 Multiplicity = 1

                         Standard orientation:
 ---------------------------------------------------------------------
 Center     Atomic      Atomic             Coordinates (Angstroms)
 Number     Number       Type             X           Y           Z
 ---------------------------------------------------------------------
      1          1           0       -3.236224   -1.148973   -0.613195
      2          6           0       -2.238889   -0.714596   -0.719447
      3          6           0       -1.626031   -0.375391    0.638650
      4          1           0       -2.345744    0.174625   -1.348082
      5          1           0       -1.621410   -1.432792   -1.264538
      6          1           0       -2.259953    0.338455    1.176209
      7         14           0        0.090071    0.338684    0.553108
      8          1           0       -1.577549   -1.271818    1.265975
      9          8           0        0.169689    1.947210   -0.435396
     10          8           0        1.028496   -0.833809   -0.112239
     11          1           0        0.628615    0.725713    1.882371
     12          1           0       -0.182730    1.936907   -1.326932
     13          6           0        2.422507   -0.720999   -0.278551
     14          1           0        2.799455   -1.665684   -0.674372
     15          1           0        2.924865   -0.518887    0.675151
     16          1           0        2.678679    0.079581   -0.978936
 ---------------------------------------------------------------------

 SCF Done:  E(RPBE1PBE) =  -560.039269454     A.U. after   14 cycles

 The electronic state is 1-A.
 Alpha  occ. eigenvalues --  -66.27901 -19.21164 -19.18574 -10.26893 -10.21989
 Alpha  occ. eigenvalues --  -10.21836  -5.35192  -3.68732  -3.68617  -3.68447
 Alpha  occ. eigenvalues --   -1.04882  -0.97834  -0.78749  -0.71096  -0.64546
 Alpha  occ. eigenvalues --   -0.54976  -0.49484  -0.47350  -0.47034  -0.46096
 Alpha  occ. eigenvalues --   -0.43944  -0.41728  -0.38271  -0.36797  -0.35627
 Alpha  occ. eigenvalues --   -0.34070  -0.31490  -0.30715  -0.30022
 Alpha virt. eigenvalues --    0.01844   0.04530   0.05432   0.07570   0.08710
 Alpha virt. eigenvalues --    0.09328   0.10039   0.10629   0.11982   0.12837
 Alpha virt. eigenvalues --    0.13381   0.14668   0.15269   0.15854   0.18815

 Mulliken atomic charges:
              1
     1  H    0.130240
     2  C   -0.388781
     3  C   -0.290133
     4  H    0.113179
     5  H    0.140896
     6  H    0.126504
     7  Si   0.567651
     8  H    0.121935
     9  O   -0.624531
    10  O   -0.328897
    11  H   -0.041896
    12  H    0.309962
    13  C   -0.213825
    14  H    0.130136
    15  H    0.118187
    16  H    0.129371
 Sum of Mulliken atomic charges =   0.00000

 Dipole moment (field-independent basis, Debye):
    X=             -0.3120    Y=             -1.3916    Z=             -0.4089  Tot=              1.4836
 Quadrupole moment (field-independent basis, Debye-Ang):
   XX=            -40.5005   YY=            -50.8960   ZZ=            -42.7595
   XY=             -1.8846   XZ=             -0.2771   YZ=             -1.8945

 Normal termination of Gaussian 09 at Fri Aug 10 04:48:56 2018.
