 Gaussian 09, Revision C.01,
 Gaussian 09:  EM64L-G09RevC.01 23-Sep-2011

 --------------------------------------
 #SP PBE1PBE/Def2TZVP geom=connectivity
 --------------------------------------

 99/5=1,9=1/99;
 --------------
 Structure: 272
 --------------
 Charge =  0 Multiplicity = 1

                         Standard orientation:
 ---------------------------------------------------------------------
 Center     Atomic      Atomic             Coordinates (Angstroms)
 Number     Number       Type             X           Y           Z
 ---------------------------------------------------------------------
      1          1           0       -3.235073   -1.157500   -0.593862
      2          6           0       -2.238166   -0.724315   -0.708652
      3          6           0       -1.625211   -0.358852    0.642573
      4          1           0       -2.346019    0.152724   -1.354008
      5          1           0       -1.620196   -1.452163   -1.240215
      6          1           0       -2.259622    0.364489    1.166694
      7         14           0        0.090214    0.355024    0.542957
      8          1           0       -1.575724   -1.243173    1.286775
      9          8           0        0.166219    1.907017   -0.452830
     10          8           0        1.029507   -0.829030   -0.100325
     11          1           0        0.628803    0.767687    1.864468
     12          1           0       -0.186386    1.879585   -1.342906
     13          6           0        2.423366   -0.718133   -0.269189
     14          1           0        2.801056   -1.669816   -0.647136
     15          1           0        2.925824   -0.497511    0.680349
     16          1           0        2.678599    0.069247   -0.984715
 ---------------------------------------------------------------------

 SCF Done:  E(RPBE1PBE) =  -560.045502239     A.U. after   13 cycles

 The electronic state is 1-A.
 Alpha  occ. eigenvalues --  -66.27504 -19.20955 -19.18892 -10.26809 -10.21939
 Alpha  occ. eigenvalues --  -10.21665  -5.34834  -3.68368  -3.68260  -3.68096
 Alpha  occ. eigenvalues --   -1.04730  -0.98617  -0.78649  -0.70988  -0.64452
 Alpha  occ. eigenvalues --   -0.55085  -0.49891  -0.47260  -0.46958  -0.46076
 Alpha  occ. eigenvalues --   -0.43876  -0.41608  -0.38187  -0.36777  -0.35994
 Alpha  occ. eigenvalues --   -0.34158  -0.31605  -0.30729  -0.30132
 Alpha virt. eigenvalues --    0.02034   0.04741   0.05558   0.07654   0.08786
 Alpha virt. eigenvalues --    0.09578   0.10162   0.10748   0.12049   0.12996
 Alpha virt. eigenvalues --    0.13436   0.14822   0.15388   0.15943   0.18900

 Mulliken atomic charges:
              1
     1  H    0.130206
     2  C   -0.389626
     3  C   -0.292365
     4  H    0.111770
     5  H    0.141158
     6  H    0.125556
     7  Si   0.565029
     8  H    0.121208
     9  O   -0.610221
    10  O   -0.330673
    11  H   -0.045523
    12  H    0.311215
    13  C   -0.213300
    14  H    0.129856
    15  H    0.118024
    16  H    0.127685
 Sum of Mulliken atomic charges =   0.00000

 Dipole moment (field-independent basis, Debye):
    X=             -0.3065    Y=             -1.2316    Z=             -0.4832  Tot=              1.3581
 Quadrupole moment (field-independent basis, Debye-Ang):
   XX=            -40.6233   YY=            -50.5763   ZZ=            -42.7830
   XY=             -1.8374   XZ=             -0.2621   YZ=             -1.8548

 Normal termination of Gaussian 09 at Fri Aug 10 02:17:59 2018.
