 Gaussian 09, Revision C.01,
 Gaussian 09:  EM64L-G09RevC.01 23-Sep-2011

 --------------------------------------
 #SP PBE1PBE/Def2TZVP geom=connectivity
 --------------------------------------

 99/5=1,9=1/99;
 --------------
 Structure: 220
 --------------
 Charge =  0 Multiplicity = 1

                         Standard orientation:
 ---------------------------------------------------------------------
 Center     Atomic      Atomic             Coordinates (Angstroms)
 Number     Number       Type             X           Y           Z
 ---------------------------------------------------------------------
      1          1           0       -3.232652   -1.178250   -0.543265
      2          6           0       -2.236659   -0.749333   -0.679927
      3          6           0       -1.623442   -0.317003    0.651292
      4          1           0       -2.346650    0.094854   -1.367360
      5          1           0       -1.617675   -1.501171   -1.175717
      6          1           0       -2.258863    0.429938    1.139882
      7         14           0        0.090541    0.394359    0.515464
      8          1           0       -1.571803   -1.168630    1.337975
      9          8           0        0.158974    1.812099   -0.494576
     10          8           0        1.031642   -0.818003   -0.069834
     11          1           0        0.629281    0.872238    1.814754
     12          1           0       -0.195195    1.739919   -1.382818
     13          6           0        2.425165   -0.712890   -0.245047
     14          1           0        2.804407   -1.681224   -0.576254
     15          1           0        2.927877   -0.445102    0.692146
     16          1           0        2.678380    0.038992   -0.998469
 ---------------------------------------------------------------------

 SCF Done:  E(RPBE1PBE) =  -560.057081799     A.U. after   12 cycles

 The electronic state is 1-A.
 Alpha  occ. eigenvalues --  -66.26463 -19.20465 -19.19651 -10.26617 -10.21828
 Alpha  occ. eigenvalues --  -10.21251  -5.33927  -3.67454  -3.67350  -3.67200
 Alpha  occ. eigenvalues --   -1.04426  -1.00534  -0.78417  -0.70740  -0.64237
 Alpha  occ. eigenvalues --   -0.55659  -0.50718  -0.47037  -0.46775  -0.46014
 Alpha  occ. eigenvalues --   -0.43711  -0.41272  -0.38228  -0.37143  -0.36407
 Alpha  occ. eigenvalues --   -0.34785  -0.31891  -0.30635  -0.29996
 Alpha virt. eigenvalues --    0.02254   0.05197   0.05830   0.07846   0.08893
 Alpha virt. eigenvalues --    0.09979   0.10554   0.11077   0.12190   0.13367
 Alpha virt. eigenvalues --    0.13626   0.15096   0.15732   0.16208   0.19105

 Mulliken atomic charges:
              1
     1  H    0.130187
     2  C   -0.391636
     3  C   -0.298585
     4  H    0.108399
     5  H    0.141839
     6  H    0.123330
     7  Si   0.554526
     8  H    0.119473
     9  O   -0.571423
    10  O   -0.334918
    11  H   -0.054643
    12  H    0.315006
    13  C   -0.212128
    14  H    0.129248
    15  H    0.117746
    16  H    0.123579
 Sum of Mulliken atomic charges =   0.00000

 Dipole moment (field-independent basis, Debye):
    X=             -0.2950    Y=             -0.8754    Z=             -0.6856  Tot=              1.1504
 Quadrupole moment (field-independent basis, Debye-Ang):
   XX=            -40.9148   YY=            -49.8736   ZZ=            -42.8286
   XY=             -1.7365   XZ=             -0.2278   YZ=             -1.7878

 Normal termination of Gaussian 09 at Fri Aug 10 04:02:25 2018.
