 Gaussian 09, Revision C.01,
 Gaussian 09:  EM64L-G09RevC.01 23-Sep-2011

 --------------------------------------
 #SP PBE1PBE/Def2TZVP geom=connectivity
 --------------------------------------

 99/5=1,9=1/99;
 --------------
 Structure: 239
 --------------
 Charge =  0 Multiplicity = 1

                         Standard orientation:
 ---------------------------------------------------------------------
 Center     Atomic      Atomic             Coordinates (Angstroms)
 Number     Number       Type             X           Y           Z
 ---------------------------------------------------------------------
      1          1           0       -3.233585   -1.170575   -0.562310
      2          6           0       -2.237251   -0.739935   -0.690828
      3          6           0       -1.624126   -0.332440    0.648243
      4          1           0       -2.346447    0.116751   -1.362749
      5          1           0       -1.618647   -1.483024   -1.200100
      6          1           0       -2.259168    0.405896    1.150222
      7         14           0        0.090396    0.380076    0.525925
      8          1           0       -1.573288   -1.196510    1.319262
      9          8           0        0.161755    1.846449   -0.479360
     10          8           0        1.030820   -0.822052   -0.081166
     11          1           0        0.629085    0.833749    1.833884
     12          1           0       -0.191290    1.791158   -1.368991
     13          6           0        2.424468   -0.714739   -0.254033
     14          1           0        2.803129   -1.677126   -0.602774
     15          1           0        2.927089   -0.464477    0.688039
     16          1           0        2.678433    0.050608   -0.993517
 ---------------------------------------------------------------------

 SCF Done:  E(RPBE1PBE) =  -560.053539683     A.U. after   13 cycles

 The electronic state is 1-A.
 Alpha  occ. eigenvalues --  -66.26856 -19.20641 -19.19385 -10.26685 -10.21866
 Alpha  occ. eigenvalues --  -10.21401  -5.34263  -3.67792  -3.67688  -3.67533
 Alpha  occ. eigenvalues --   -1.04521  -0.99818  -0.78499  -0.70828  -0.64313
 Alpha  occ. eigenvalues --   -0.55390  -0.50451  -0.47117  -0.46840  -0.46034
 Alpha  occ. eigenvalues --   -0.43770  -0.41398  -0.38136  -0.36952  -0.36359
 Alpha  occ. eigenvalues --   -0.34485  -0.31816  -0.30686  -0.30083
 Alpha virt. eigenvalues --    0.02202   0.05040   0.05737   0.07777   0.08858
 Alpha virt. eigenvalues --    0.09870   0.10406   0.10949   0.12142   0.13251
 Alpha virt. eigenvalues --    0.13532   0.15015   0.15593   0.16101   0.19029

 Mulliken atomic charges:
              1
     1  H    0.130182
     2  C   -0.390919
     3  C   -0.296130
     4  H    0.109628
     5  H    0.141580
     6  H    0.124127
     7  Si   0.559093
     8  H    0.120102
     9  O   -0.586496
    10  O   -0.333360
    11  H   -0.051261
    12  H    0.313627
    13  C   -0.212522
    14  H    0.129457
    15  H    0.117832
    16  H    0.125060
 Sum of Mulliken atomic charges =   0.00000

 Dipole moment (field-independent basis, Debye):
    X=             -0.2987    Y=             -0.9998    Z=             -0.6097  Tot=              1.2086
 Quadrupole moment (field-independent basis, Debye-Ang):
   XX=            -40.8118   YY=            -50.1187   ZZ=            -42.8113
   XY=             -1.7711   XZ=             -0.2414   YZ=             -1.8105

 Normal termination of Gaussian 09 at Fri Aug 10 06:10:04 2018.
