 Gaussian 09, Revision C.01,
 Gaussian 09:  EM64L-G09RevC.01 23-Sep-2011

 --------------------------------------
 #SP PBE1PBE/Def2TZVP geom=connectivity
 --------------------------------------

 99/5=1,9=1/99;
 --------------
 Structure: 270
 --------------
 Charge =  0 Multiplicity = 1

                         Standard orientation:
 ---------------------------------------------------------------------
 Center     Atomic      Atomic             Coordinates (Angstroms)
 Number     Number       Type             X           Y           Z
 ---------------------------------------------------------------------
      1          1           0       -3.234863   -1.158573   -0.591872
      2          6           0       -2.238023   -0.725469   -0.707535
      3          6           0       -1.625059   -0.357333    0.642960
      4          1           0       -2.346027    0.150317   -1.354565
      5          1           0       -1.619974   -1.454247   -1.237731
      6          1           0       -2.259549    0.366922    1.165723
      7         14           0        0.090261    0.356592    0.541901
      8          1           0       -1.575420   -1.240412    1.288852
      9          8           0        0.165534    1.903360   -0.454468
     10          8           0        1.029692   -0.828560   -0.099154
     11          1           0        0.628851    0.771861    1.862596
     12          1           0       -0.187107    1.874174   -1.344474
     13          6           0        2.423528   -0.717792   -0.268292
     14          1           0        2.801334   -1.670143   -0.644433
     15          1           0        2.925997   -0.495281    0.680799
     16          1           0        2.678619    0.068252   -0.985336
 ---------------------------------------------------------------------

 SCF Done:  E(RPBE1PBE) =  -560.046052442     A.U. after   13 cycles

 The electronic state is 1-A.
 Alpha  occ. eigenvalues --  -66.27466 -19.20937 -19.18923 -10.26802 -10.21934
 Alpha  occ. eigenvalues --  -10.21648  -5.34800  -3.68334  -3.68226  -3.68062
 Alpha  occ. eigenvalues --   -1.04717  -0.98690  -0.78639  -0.70979  -0.64443
 Alpha  occ. eigenvalues --   -0.55099  -0.49929  -0.47252  -0.46951  -0.46073
 Alpha  occ. eigenvalues --   -0.43870  -0.41596  -0.38180  -0.36778  -0.36026
 Alpha  occ. eigenvalues --   -0.34171  -0.31619  -0.30729  -0.30135
 Alpha virt. eigenvalues --    0.02048   0.04761   0.05570   0.07661   0.08791
 Alpha virt. eigenvalues --    0.09600   0.10176   0.10760   0.12054   0.13012
 Alpha virt. eigenvalues --    0.13441   0.14836   0.15400   0.15951   0.18908

 Mulliken atomic charges:
              1
     1  H    0.130202
     2  C   -0.389706
     3  C   -0.292581
     4  H    0.111633
     5  H    0.141180
     6  H    0.125469
     7  Si   0.564736
     8  H    0.121133
     9  O   -0.608825
    10  O   -0.330834
    11  H   -0.045872
    12  H    0.311346
    13  C   -0.213259
    14  H    0.129834
    15  H    0.118017
    16  H    0.127526
 Sum of Mulliken atomic charges =   0.00000

 Dipole moment (field-independent basis, Debye):
    X=             -0.3052    Y=             -1.2172    Z=             -0.4908  Tot=              1.3474
 Quadrupole moment (field-independent basis, Debye-Ang):
   XX=            -40.6341   YY=            -50.5482   ZZ=            -42.7852
   XY=             -1.8322   XZ=             -0.2604   YZ=             -1.8515

 Normal termination of Gaussian 09 at Fri Aug 10 02:04:45 2018.
