 Gaussian 09, Revision C.01,
 Gaussian 09:  EM64L-G09RevC.01 23-Sep-2011

 --------------------------------------
 #SP PBE1PBE/Def2TZVP geom=connectivity
 --------------------------------------

 99/5=1,9=1/99;
 --------------
 Structure: 248
 --------------
 Charge =  0 Multiplicity = 1

                         Standard orientation:
 ---------------------------------------------------------------------
 Center     Atomic      Atomic             Coordinates (Angstroms)
 Number     Number       Type             X           Y           Z
 ---------------------------------------------------------------------
      1          1           0       -3.233968   -1.167088   -0.571268
      2          6           0       -2.237485   -0.735659   -0.695925
      3          6           0       -1.624392   -0.340004    0.646706
      4          1           0       -2.346336    0.126867   -1.360391
      5          1           0       -1.619052   -1.474488   -1.211563
      6          1           0       -2.259264    0.394141    1.155008
      7         14           0        0.090366    0.373013    0.530780
      8          1           0       -1.573901   -1.209887    1.310199
      9          8           0        0.162955    1.863881   -0.471803
     10          8           0        1.030488   -0.824088   -0.086623
     11          1           0        0.629042    0.815138    1.842693
     12          1           0       -0.190913    1.816037   -1.361808
     13          6           0        2.424189   -0.715712   -0.258391
     14          1           0        2.802593   -1.675151   -0.615436
     15          1           0        2.926778   -0.473801    0.685879
     16          1           0        2.678480    0.055952   -0.991168
 ---------------------------------------------------------------------

 SCF Done:  E(RPBE1PBE) =  -560.051468848     A.U. after   13 cycles

 The electronic state is 1-A.
 Alpha  occ. eigenvalues --  -66.27044 -19.20731 -19.19255 -10.26720 -10.21888
 Alpha  occ. eigenvalues --  -10.21477  -5.34428  -3.67957  -3.67853  -3.67695
 Alpha  occ. eigenvalues --   -1.04577  -0.99460  -0.78543  -0.70874  -0.64353
 Alpha  occ. eigenvalues --   -0.55277  -0.50295  -0.47158  -0.46874  -0.46048
 Alpha  occ. eigenvalues --   -0.43801  -0.41458  -0.38135  -0.36866  -0.36299
 Alpha  occ. eigenvalues --   -0.34365  -0.31762  -0.30707  -0.30116
 Alpha virt. eigenvalues --    0.02160   0.04959   0.05688   0.07743   0.08839
 Alpha virt. eigenvalues --    0.09799   0.10331   0.10889   0.12114   0.13181
 Alpha virt. eigenvalues --    0.13498   0.14966   0.15527   0.16051   0.18992

 Mulliken atomic charges:
              1
     1  H    0.130192
     2  C   -0.390544
     3  C   -0.295025
     4  H    0.110209
     5  H    0.141469
     6  H    0.124549
     7  Si   0.560908
     8  H    0.120426
     9  O   -0.593492
    10  O   -0.332590
    11  H   -0.049630
    12  H    0.312986
    13  C   -0.212740
    14  H    0.129568
    15  H    0.117889
    16  H    0.125825
 Sum of Mulliken atomic charges =   0.00000

 Dipole moment (field-independent basis, Debye):
    X=             -0.3020    Y=             -1.0655    Z=             -0.5731  Tot=              1.2469
 Quadrupole moment (field-independent basis, Debye-Ang):
   XX=            -40.7570   YY=            -50.2499   ZZ=            -42.8054
   XY=             -1.7914   XZ=             -0.2452   YZ=             -1.8204

 Normal termination of Gaussian 09 at Thu Aug  9 23:34:26 2018.
