 Gaussian 09, Revision C.01,
 Gaussian 09:  EM64L-G09RevC.01 23-Sep-2011

 --------------------------------------
 #SP PBE1PBE/Def2TZVP geom=connectivity
 --------------------------------------

 99/5=1,9=1/99;
 --------------
 Structure: 279
 --------------
 Charge =  0 Multiplicity = 1

                         Standard orientation:
 ---------------------------------------------------------------------
 Center     Atomic      Atomic             Coordinates (Angstroms)
 Number     Number       Type             X           Y           Z
 ---------------------------------------------------------------------
      1          1           0       -3.235438   -1.154795   -0.600067
      2          6           0       -2.238396   -0.721206   -0.712130
      3          6           0       -1.625472   -0.364117    0.641346
      4          1           0       -2.345935    0.159760   -1.352168
      5          1           0       -1.620581   -1.445995   -1.248036
      6          1           0       -2.259729    0.356215    1.169780
      7         14           0        0.090166    0.349860    0.546228
      8          1           0       -1.576302   -1.252341    1.280179
      9          8           0        0.167324    1.919697   -0.447338
     10          8           0        1.029186   -0.830540   -0.104129
     11          1           0        0.628741    0.754350    1.870269
     12          1           0       -0.185201    1.897762   -1.337598
     13          6           0        2.423093   -0.719020   -0.272180
     14          1           0        2.800549   -1.668502   -0.655854
     15          1           0        2.925520   -0.504303    0.678726
     16          1           0        2.678622    0.072610   -0.982896
 ---------------------------------------------------------------------

 SCF Done:  E(RPBE1PBE) =  -560.043602047     A.U. after   13 cycles

 The electronic state is 1-A.
 Alpha  occ. eigenvalues --  -66.27632 -19.21021 -19.18789 -10.26835 -10.21955
 Alpha  occ. eigenvalues --  -10.21719  -5.34949  -3.68485  -3.68375  -3.68208
 Alpha  occ. eigenvalues --   -1.04777  -0.98373  -0.78681  -0.71022  -0.64482
 Alpha  occ. eigenvalues --   -0.55045  -0.49765  -0.47289  -0.46982  -0.46084
 Alpha  occ. eigenvalues --   -0.43898  -0.41648  -0.38212  -0.36777  -0.35881
 Alpha  occ. eigenvalues --   -0.34121  -0.31562  -0.30729  -0.30113
 Alpha virt. eigenvalues --    0.01982   0.04676   0.05519   0.07627   0.08766
 Alpha virt. eigenvalues --    0.09502   0.10120   0.10709   0.12028   0.12945
 Alpha virt. eigenvalues --    0.13419   0.14775   0.15350   0.15914   0.18873

 Mulliken atomic charges:
              1
     1  H    0.130216
     2  C   -0.389356
     3  C   -0.291648
     4  H    0.112218
     5  H    0.141074
     6  H    0.125858
     7  Si   0.565952
     8  H    0.121440
     9  O   -0.614803
    10  O   -0.330116
    11  H   -0.044370
    12  H    0.310761
    13  C   -0.213465
    14  H    0.129943
    15  H    0.118073
    16  H    0.128222
 Sum of Mulliken atomic charges =   0.00000

 Dipole moment (field-independent basis, Debye):
    X=             -0.3083    Y=             -1.2817    Z=             -0.4589  Tot=              1.3958
 Quadrupole moment (field-independent basis, Debye-Ang):
   XX=            -40.5841   YY=            -50.6758   ZZ=            -42.7765
   XY=             -1.8523   XZ=             -0.2668   YZ=             -1.8661

 Normal termination of Gaussian 09 at Fri Aug 10 03:04:33 2018.
