 Gaussian 09, Revision C.01,
 Gaussian 09:  EM64L-G09RevC.01 23-Sep-2011

 --------------------------------------
 #SP PBE1PBE/Def2TZVP geom=connectivity
 --------------------------------------

 99/5=1,9=1/99;
 -------------
 Structure: 33
 -------------
 Charge =  0 Multiplicity = 1

                         Standard orientation:
 ---------------------------------------------------------------------
 Center     Atomic      Atomic             Coordinates (Angstroms)
 Number     Number       Type             X           Y           Z
 ---------------------------------------------------------------------
      1          1           0       -3.225525   -1.242567   -0.315179
      2          6           0       -2.232167   -0.847248   -0.542360
      3          6           0       -1.618327   -0.141443    0.665996
      4          1           0       -2.348242   -0.167219   -1.391714
      5          1           0       -1.610242   -1.683622   -0.870840
      6          1           0       -2.256677    0.688549    0.988522
      7         14           0        0.091488    0.533615    0.377801
      8          1           0       -1.560565   -0.829183    1.516376
      9          8           0        0.137496    1.454867   -0.632471
     10          8           0        1.037808   -0.770253    0.057685
     11          1           0        0.630536    1.276870    1.545603
     12          1           0       -0.217276    1.196344   -1.483718
     13          6           0        2.430350   -0.697684   -0.140344
     14          1           0        2.814071   -1.712207   -0.261564
     15          1           0        2.933696   -0.236204    0.717816
     16          1           0        2.677826   -0.120036   -1.035982
 ---------------------------------------------------------------------

 SCF Done:  E(RPBE1PBE) =  -559.982734089     A.U. after   12 cycles

 The electronic state is 1-A.
 Alpha  occ. eigenvalues --  -66.21043 -19.21247 -19.18718 -10.26018 -10.21515
 Alpha  occ. eigenvalues --  -10.19678  -5.30180  -3.63925  -3.63422  -3.63258
 Alpha  occ. eigenvalues --   -1.10705  -1.02614  -0.77652  -0.69939  -0.63864
 Alpha  occ. eigenvalues --   -0.61177  -0.51484  -0.47259  -0.46606  -0.45965
 Alpha  occ. eigenvalues --   -0.43519  -0.42662  -0.41169  -0.39493  -0.36351
 Alpha  occ. eigenvalues --   -0.35664  -0.31140  -0.29690  -0.28488
 Alpha virt. eigenvalues --    0.01845   0.06170   0.06606   0.08465   0.09131
 Alpha virt. eigenvalues --    0.10528   0.11386   0.12057   0.12554   0.13512
 Alpha virt. eigenvalues --    0.15253   0.15608   0.17013   0.17639   0.19765

 Mulliken atomic charges:
              1
     1  H    0.130752
     2  C   -0.400518
     3  C   -0.336192
     4  H    0.097264
     5  H    0.144969
     6  H    0.115180
     7  Si   0.457596
     8  H    0.113522
     9  O   -0.342465
    10  O   -0.360425
    11  H   -0.095600
    12  H    0.333681
    13  C   -0.211360
    14  H    0.127708
    15  H    0.117625
    16  H    0.108260
 Sum of Mulliken atomic charges =   0.00000

 Dipole moment (field-independent basis, Debye):
    X=             -0.2561    Y=              0.0699    Z=             -1.6470  Tot=              1.6682
 Quadrupole moment (field-independent basis, Debye-Ang):
   XX=            -41.8841   YY=            -47.9140   ZZ=            -42.8344
   XY=             -1.4460   XZ=             -0.1444   YZ=             -1.8269

 Normal termination of Gaussian 09 at Fri Aug 10 05:51:05 2018.
