 Gaussian 09, Revision C.01,
 Gaussian 09:  EM64L-G09RevC.01 23-Sep-2011

 --------------------------------------
 #SP PBE1PBE/Def2TZVP geom=connectivity
 --------------------------------------

 99/5=1,9=1/99;
 -------------
 Structure: 37
 -------------
 Charge =  0 Multiplicity = 1

                         Standard orientation:
 ---------------------------------------------------------------------
 Center     Atomic      Atomic             Coordinates (Angstroms)
 Number     Number       Type             X           Y           Z
 ---------------------------------------------------------------------
      1          1           0       -3.225585   -1.241770   -0.320056
      2          6           0       -2.232197   -0.845490   -0.545423
      3          6           0       -1.618366   -0.145146    0.666111
      4          1           0       -2.348203   -0.161652   -1.391722
      5          1           0       -1.610305   -1.680416   -0.877627
      6          1           0       -2.256684    0.683426    0.992332
      7         14           0        0.091496    0.531106    0.381013
      8          1           0       -1.560674   -0.836697    1.513399
      9          8           0        0.137638    1.462100   -0.630284
     10          8           0        1.037758   -0.771364    0.055088
     11          1           0        0.630539    1.269085    1.552158
     12          1           0       -0.217187    1.207068   -1.483630
     13          6           0        2.430312   -0.697983   -0.142560
     14          1           0        2.813983   -1.711974   -0.268316
     15          1           0        2.933650   -0.240385    0.717681
     16          1           0        2.677854   -0.116337   -1.035589
 ---------------------------------------------------------------------

 SCF Done:  E(RPBE1PBE) =  -559.987951899     A.U. after   12 cycles

 The electronic state is 1-A.
 Alpha  occ. eigenvalues --  -66.21180 -19.21250 -19.18751 -10.26028 -10.21519
 Alpha  occ. eigenvalues --  -10.19708  -5.30251  -3.63979  -3.63504  -3.63341
 Alpha  occ. eigenvalues --   -1.10478  -1.02636  -0.77664  -0.69952  -0.63844
 Alpha  occ. eigenvalues --   -0.61052  -0.51476  -0.47194  -0.46590  -0.45974
 Alpha  occ. eigenvalues --   -0.43495  -0.42593  -0.41086  -0.39497  -0.36377
 Alpha  occ. eigenvalues --   -0.35673  -0.31164  -0.29710  -0.28520
 Alpha virt. eigenvalues --    0.01852   0.06163   0.06588   0.08457   0.09126
 Alpha virt. eigenvalues --    0.10522   0.11376   0.12047   0.12550   0.13514
 Alpha virt. eigenvalues --    0.15240   0.15588   0.16990   0.17616   0.19756

 Mulliken atomic charges:
              1
     1  H    0.130733
     2  C   -0.400324
     3  C   -0.335225
     4  H    0.097426
     5  H    0.144892
     6  H    0.115330
     7  Si   0.459741
     8  H    0.113607
     9  O   -0.347898
    10  O   -0.359676
    11  H   -0.094660
    12  H    0.333467
    13  C   -0.211302
    14  H    0.127730
    15  H    0.117615
    16  H    0.108544
 Sum of Mulliken atomic charges =   0.00000

 Dipole moment (field-independent basis, Debye):
    X=             -0.2562    Y=              0.0579    Z=             -1.6272  Tot=              1.6482
 Quadrupole moment (field-independent basis, Debye-Ang):
   XX=            -41.8693   YY=            -47.9441   ZZ=            -42.8344
   XY=             -1.4502   XZ=             -0.1448   YZ=             -1.8233

 Normal termination of Gaussian 09 at Fri Aug 10 06:11:35 2018.
