 Gaussian 09, Revision C.01,
 Gaussian 09:  EM64L-G09RevC.01 23-Sep-2011

 --------------------------------------
 #SP PBE1PBE/Def2TZVP geom=connectivity
 --------------------------------------

 99/5=1,9=1/99;
 -------------
 Structure: 31
 -------------
 Charge =  0 Multiplicity = 1

                         Standard orientation:
 ---------------------------------------------------------------------
 Center     Atomic      Atomic             Coordinates (Angstroms)
 Number     Number       Type             X           Y           Z
 ---------------------------------------------------------------------
      1          1           0       -3.225369   -1.243234   -0.312338
      2          6           0       -2.232054   -0.848414   -0.540577
      3          6           0       -1.618215   -0.139471    0.665941
      4          1           0       -2.348226   -0.170570   -1.391661
      5          1           0       -1.610076   -1.685574   -0.866946
      6          1           0       -2.256619    0.691290    0.986375
      7         14           0        0.091530    0.534990    0.375938
      8          1           0       -1.560355   -0.825029    1.518074
      9          8           0        0.136973    1.451063   -0.633515
     10          8           0        1.037943   -0.769614    0.059112
     11          1           0        0.630572    1.281273    1.541810
     12          1           0       -0.217818    1.190335   -1.484081
     13          6           0        2.430469   -0.697436   -0.139169
     14          1           0        2.814269   -1.712234   -0.257813
     15          1           0        2.933819   -0.233721    0.717784
     16          1           0        2.677855   -0.122060   -1.036293
 ---------------------------------------------------------------------

 SCF Done:  E(RPBE1PBE) =  -559.979698954     A.U. after   12 cycles

 The electronic state is 1-A.
 Alpha  occ. eigenvalues --  -66.20964 -19.21249 -19.18702 -10.26013 -10.21513
 Alpha  occ. eigenvalues --  -10.19660  -5.30140  -3.63894  -3.63375  -3.63211
 Alpha  occ. eigenvalues --   -1.10821  -1.02604  -0.77645  -0.69932  -0.63874
 Alpha  occ. eigenvalues --   -0.61236  -0.51489  -0.47296  -0.46616  -0.45960
 Alpha  occ. eigenvalues --   -0.43534  -0.42698  -0.41213  -0.39489  -0.36336
 Alpha  occ. eigenvalues --   -0.35657  -0.31128  -0.29681  -0.28468
 Alpha virt. eigenvalues --    0.01834   0.06173   0.06615   0.08471   0.09132
 Alpha virt. eigenvalues --    0.10531   0.11392   0.12063   0.12556   0.13510
 Alpha virt. eigenvalues --    0.15259   0.15619   0.17027   0.17651   0.19770

 Mulliken atomic charges:
              1
     1  H    0.130764
     2  C   -0.400637
     3  C   -0.336730
     4  H    0.097156
     5  H    0.145009
     6  H    0.115093
     7  Si   0.456441
     8  H    0.113458
     9  O   -0.339569
    10  O   -0.360837
    11  H   -0.096131
    12  H    0.333938
    13  C   -0.211404
    14  H    0.127701
    15  H    0.117641
    16  H    0.108107
 Sum of Mulliken atomic charges =   0.00000

 Dipole moment (field-independent basis, Debye):
    X=             -0.2552    Y=              0.0759    Z=             -1.6591  Tot=              1.6803
 Quadrupole moment (field-independent basis, Debye-Ang):
   XX=            -41.8922   YY=            -47.8995   ZZ=            -42.8330
   XY=             -1.4436   XZ=             -0.1436   YZ=             -1.8297

 Normal termination of Gaussian 09 at Fri Aug 10 05:37:38 2018.
