 Gaussian 09, Revision C.01,
 Gaussian 09:  EM64L-G09RevC.01 23-Sep-2011

 --------------------------------------
 #SP PBE1PBE/Def2TZVP geom=connectivity
 --------------------------------------

 99/5=1,9=1/99;
 -------------
 Structure: 30
 -------------
 Charge =  0 Multiplicity = 1

                         Standard orientation:
 ---------------------------------------------------------------------
 Center     Atomic      Atomic             Coordinates (Angstroms)
 Number     Number       Type             X           Y           Z
 ---------------------------------------------------------------------
      1          1           0       -3.225348   -1.243487   -0.310712
      2          6           0       -2.232044   -0.848990   -0.539552
      3          6           0       -1.618201   -0.138240    0.665900
      4          1           0       -2.348240   -0.172415   -1.391643
      5          1           0       -1.610056   -1.686624   -0.864684
      6          1           0       -2.256615    0.692986    0.985106
      7         14           0        0.091528    0.535818    0.374871
      8          1           0       -1.560317   -0.822528    1.519052
      9          8           0        0.136926    1.448662   -0.634208
     10          8           0        1.037960   -0.769239    0.059974
     11          1           0        0.630572    1.283846    1.539623
     12          1           0       -0.217871    1.186662   -1.484380
     13          6           0        2.430482   -0.697331   -0.138433
     14          1           0        2.814298   -1.712298   -0.255572
     15          1           0        2.933835   -0.232332    0.717822
     16          1           0        2.677845   -0.123287   -1.036417
 ---------------------------------------------------------------------

 SCF Done:  E(RPBE1PBE) =  -559.977853470     A.U. after   12 cycles

 The electronic state is 1-A.
 Alpha  occ. eigenvalues --  -66.20917 -19.21249 -19.18691 -10.26010 -10.21511
 Alpha  occ. eigenvalues --  -10.19650  -5.30116  -3.63876  -3.63347  -3.63183
 Alpha  occ. eigenvalues --   -1.10890  -1.02596  -0.77641  -0.69927  -0.63880
 Alpha  occ. eigenvalues --   -0.61271  -0.51492  -0.47319  -0.46622  -0.45957
 Alpha  occ. eigenvalues --   -0.43543  -0.42718  -0.41240  -0.39486  -0.36327
 Alpha  occ. eigenvalues --   -0.35654  -0.31120  -0.29674  -0.28457
 Alpha virt. eigenvalues --    0.01827   0.06175   0.06620   0.08474   0.09133
 Alpha virt. eigenvalues --    0.10533   0.11395   0.12066   0.12557   0.13509
 Alpha virt. eigenvalues --    0.15262   0.15625   0.17034   0.17658   0.19773

 Mulliken atomic charges:
              1
     1  H    0.130772
     2  C   -0.400710
     3  C   -0.337044
     4  H    0.097097
     5  H    0.145036
     6  H    0.115042
     7  Si   0.455744
     8  H    0.113427
     9  O   -0.337857
    10  O   -0.361091
    11  H   -0.096436
    12  H    0.334096
    13  C   -0.211423
    14  H    0.127693
    15  H    0.117645
    16  H    0.108009
 Sum of Mulliken atomic charges =   0.00000

 Dipole moment (field-independent basis, Debye):
    X=             -0.2552    Y=              0.0797    Z=             -1.6661  Tot=              1.6874
 Quadrupole moment (field-independent basis, Debye-Ang):
   XX=            -41.8977   YY=            -47.8904   ZZ=            -42.8317
   XY=             -1.4421   XZ=             -0.1433   YZ=             -1.8312

 Normal termination of Gaussian 09 at Fri Aug 10 05:30:56 2018.
