 Gaussian 09, Revision C.01,
 Gaussian 09:  EM64L-G09RevC.01 23-Sep-2011

 --------------------------------------
 #SP PBE1PBE/Def2TZVP geom=connectivity
 --------------------------------------

 99/5=1,9=1/99;
 -------------
 Structure: 34
 -------------
 Charge =  0 Multiplicity = 1

                         Standard orientation:
 ---------------------------------------------------------------------
 Center     Atomic      Atomic             Coordinates (Angstroms)
 Number     Number       Type             X           Y           Z
 ---------------------------------------------------------------------
      1          1           0       -3.225636   -1.242193   -0.316321
      2          6           0       -2.232251   -0.846693   -0.543070
      3          6           0       -1.618400   -0.142172    0.666030
      4          1           0       -2.348269   -0.165780   -1.391722
      5          1           0       -1.610365   -1.682761   -0.872400
      6          1           0       -2.256713    0.687520    0.989401
      7         14           0        0.091458    0.533090    0.378574
      8          1           0       -1.560696   -0.830795    1.515700
      9          8           0        0.137965    1.456256   -0.632177
     10          8           0        1.037714   -0.770498    0.057131
     11          1           0        0.630519    1.275106    1.547158
     12          1           0       -0.217709    1.198272   -1.483492
     13          6           0        2.430264   -0.697800   -0.140790
     14          1           0        2.813933   -1.712219   -0.263052
     15          1           0        2.933616   -0.237236    0.717859
     16          1           0        2.677793   -0.119240   -1.035825
 ---------------------------------------------------------------------

 SCF Done:  E(RPBE1PBE) =  -559.983925335     A.U. after   12 cycles

 The electronic state is 1-A.
 Alpha  occ. eigenvalues --  -66.21074 -19.21247 -19.18723 -10.26019 -10.21518
 Alpha  occ. eigenvalues --  -10.19688  -5.30196  -3.63937  -3.63440  -3.63277
 Alpha  occ. eigenvalues --   -1.10654  -1.02617  -0.77657  -0.69940  -0.63860
 Alpha  occ. eigenvalues --   -0.61147  -0.51481  -0.47245  -0.46601  -0.45968
 Alpha  occ. eigenvalues --   -0.43513  -0.42646  -0.41152  -0.39494  -0.36358
 Alpha  occ. eigenvalues --   -0.35668  -0.31144  -0.29693  -0.28497
 Alpha virt. eigenvalues --    0.01846   0.06169   0.06603   0.08462   0.09130
 Alpha virt. eigenvalues --    0.10527   0.11383   0.12054   0.12553   0.13512
 Alpha virt. eigenvalues --    0.15251   0.15603   0.17005   0.17636   0.19762

 Mulliken atomic charges:
              1
     1  H    0.130757
     2  C   -0.400474
     3  C   -0.336002
     4  H    0.097300
     5  H    0.144975
     6  H    0.115230
     7  Si   0.457964
     8  H    0.113567
     9  O   -0.343655
    10  O   -0.360257
    11  H   -0.095365
    12  H    0.333645
    13  C   -0.211336
    14  H    0.127705
    15  H    0.117609
    16  H    0.108338
 Sum of Mulliken atomic charges =   0.00000

 Dipole moment (field-independent basis, Debye):
    X=             -0.2586    Y=              0.0669    Z=             -1.6410  Tot=              1.6626
 Quadrupole moment (field-independent basis, Debye-Ang):
   XX=            -41.8798   YY=            -47.9208   ZZ=            -42.8363
   XY=             -1.4479   XZ=             -0.1425   YZ=             -1.8232

 Normal termination of Gaussian 09 at Fri Aug 10 05:57:47 2018.
