 Gaussian 09, Revision C.01,
 Gaussian 09:  EM64L-G09RevC.01 23-Sep-2011

 --------------------------------------
 #SP PBE1PBE/Def2TZVP geom=connectivity
 --------------------------------------

 99/5=1,9=1/99;
 ------------
 Structure: 3
 ------------
 Charge =  0 Multiplicity = 1

                         Standard orientation:
 ---------------------------------------------------------------------
 Center     Atomic      Atomic             Coordinates (Angstroms)
 Number     Number       Type             X           Y           Z
 ---------------------------------------------------------------------
      1          1           0        3.224470   -1.249507    0.274473
      2          6           0        2.231481   -0.862235    0.516631
      3          6           0        1.617572   -0.111696   -0.664425
      4          1           0        2.348395   -0.214252    1.390566
      5          1           0        1.609142   -1.709808    0.814159
      6          1           0        2.256336    0.729268   -0.956249
      7         14           0       -0.091658    0.553329   -0.350580
      8          1           0        1.558965   -0.767386   -1.539700
      9          8           0       -0.134275    1.397783    0.647261
     10          8           0       -1.038711   -0.760894   -0.078594
     11          1           0       -0.630731    1.339738   -1.489757
     12          1           0        0.220705    1.107634    1.488165
     13          6           0       -2.431114   -0.694807    0.122651
     14          1           0       -2.815463   -1.712876    0.206343
     15          1           0       -2.934537   -0.201486   -0.717564
     16          1           0       -2.677799   -0.150613    1.039215
 ---------------------------------------------------------------------

 SCF Done:  E(RPBE1PBE) =  -559.929158998     A.U. after   12 cycles

 The electronic state is 1-A.
 Alpha  occ. eigenvalues --  -66.19849 -19.21220 -19.18466 -10.25945 -10.21485
 Alpha  occ. eigenvalues --  -10.19428  -5.29621  -3.63540  -3.62739  -3.62575
 Alpha  occ. eigenvalues --   -1.12381  -1.02440  -0.77553  -0.69836  -0.64104
 Alpha  occ. eigenvalues --   -0.61929  -0.51584  -0.47926  -0.46793  -0.45885
 Alpha  occ. eigenvalues --   -0.43842  -0.43068  -0.41755  -0.39377  -0.36131
 Alpha  occ. eigenvalues --   -0.35580  -0.30950  -0.29536  -0.28208
 Alpha virt. eigenvalues --    0.01672   0.06212   0.06724   0.08535   0.09143
 Alpha virt. eigenvalues --    0.10566   0.11463   0.12134   0.12581   0.13481
 Alpha virt. eigenvalues --    0.15315   0.15774   0.17205   0.17796   0.19831

 Mulliken atomic charges:
              1
     1  H    0.130945
     2  C   -0.402308
     3  C   -0.344142
     4  H    0.095849
     5  H    0.145607
     6  H    0.113946
     7  Si   0.442214
     8  H    0.112741
     9  O   -0.301502
    10  O   -0.366843
    11  H   -0.103391
    12  H    0.337531
    13  C   -0.211981
    14  H    0.127564
    15  H    0.117808
    16  H    0.105960
 Sum of Mulliken atomic charges =   0.00000

 Dipole moment (field-independent basis, Debye):
    X=              0.2512    Y=              0.1501    Z=              1.8218  Tot=              1.8452
 Quadrupole moment (field-independent basis, Debye-Ang):
   XX=            -42.0043   YY=            -47.7109   ZZ=            -42.8040
   XY=              1.4136   XZ=             -0.1378   YZ=              1.8688

 Normal termination of Gaussian 09 at Fri Aug 10 01:11:26 2018.
