 Gaussian 09, Revision C.01,
 Gaussian 09:  EM64L-G09RevC.01 23-Sep-2011

 --------------------------------------
 #SP PBE1PBE/Def2TZVP geom=connectivity
 --------------------------------------

 99/5=1,9=1/99;
 -------------
 Structure: 38
 -------------
 Charge =  0 Multiplicity = 1

                         Standard orientation:
 ---------------------------------------------------------------------
 Center     Atomic      Atomic             Coordinates (Angstroms)
 Number     Number       Type             X           Y           Z
 ---------------------------------------------------------------------
      1          1           0       -3.225606   -1.241506   -0.321677
      2          6           0       -2.232207   -0.844909   -0.546442
      3          6           0       -1.618380   -0.146376    0.666139
      4          1           0       -2.348189   -0.159813   -1.391726
      5          1           0       -1.610326   -1.679352   -0.879876
      6          1           0       -2.256688    0.681722    0.993582
      7         14           0        0.091499    0.530267    0.382069
      8          1           0       -1.560712   -0.839185    1.512401
      9          8           0        0.137686    1.464505   -0.629564
     10          8           0        1.037741   -0.771735    0.054223
     11          1           0        0.630538    1.266497    1.554316
     12          1           0       -0.217132    1.210747   -1.483292
     13          6           0        2.430299   -0.698086   -0.143296
     14          1           0        2.813953   -1.711895   -0.270552
     15          1           0        2.933634   -0.241774    0.717630
     16          1           0        2.677864   -0.115119   -1.035457
 ---------------------------------------------------------------------

 SCF Done:  E(RPBE1PBE) =  -559.989633070     A.U. after   12 cycles

 The electronic state is 1-A.
 Alpha  occ. eigenvalues --  -66.21226 -19.21248 -19.18763 -10.26031 -10.21520
 Alpha  occ. eigenvalues --  -10.19718  -5.30275  -3.63998  -3.63532  -3.63369
 Alpha  occ. eigenvalues --   -1.10409  -1.02644  -0.77668  -0.69957  -0.63840
 Alpha  occ. eigenvalues --   -0.61016  -0.51474  -0.47174  -0.46585  -0.45977
 Alpha  occ. eigenvalues --   -0.43488  -0.42570  -0.41059  -0.39498  -0.36385
 Alpha  occ. eigenvalues --   -0.35676  -0.31172  -0.29717  -0.28531
 Alpha virt. eigenvalues --    0.01859   0.06160   0.06584   0.08454   0.09125
 Alpha virt. eigenvalues --    0.10520   0.11373   0.12043   0.12549   0.13515
 Alpha virt. eigenvalues --    0.15236   0.15582   0.16982   0.17608   0.19753

 Mulliken atomic charges:
              1
     1  H    0.130725
     2  C   -0.400251
     3  C   -0.334915
     4  H    0.097486
     5  H    0.144866
     6  H    0.115381
     7  Si   0.460467
     8  H    0.113638
     9  O   -0.349629
    10  O   -0.359428
    11  H   -0.094358
    12  H    0.333309
    13  C   -0.211285
    14  H    0.127738
    15  H    0.117612
    16  H    0.108642
 Sum of Mulliken atomic charges =   0.00000

 Dipole moment (field-independent basis, Debye):
    X=             -0.2562    Y=              0.0539    Z=             -1.6202  Tot=              1.6412
 Quadrupole moment (field-independent basis, Debye-Ang):
   XX=            -41.8637   YY=            -47.9536   ZZ=            -42.8356
   XY=             -1.4517   XZ=             -0.1452   YZ=             -1.8219

 Normal termination of Gaussian 09 at Fri Aug 10 06:14:13 2018.
