 Gaussian 09, Revision C.01,
 Gaussian 09:  EM64L-G09RevC.01 23-Sep-2011

 --------------------------------------
 #SP PBE1PBE/Def2TZVP geom=connectivity
 --------------------------------------

 99/5=1,9=1/99;
 -------------
 Structure: 35
 -------------
 Charge =  0 Multiplicity = 1

                         Standard orientation:
 ---------------------------------------------------------------------
 Center     Atomic      Atomic             Coordinates (Angstroms)
 Number     Number       Type             X           Y           Z
 ---------------------------------------------------------------------
      1          1           0       -3.225684   -1.242067   -0.317554
      2          6           0       -2.232285   -0.846353   -0.543866
      3          6           0       -1.618422   -0.143162    0.666002
      4          1           0       -2.348275   -0.164516   -1.391781
      5          1           0       -1.610422   -1.682082   -0.874097
      6          1           0       -2.256712    0.686200    0.990266
      7         14           0        0.091459    0.532358    0.379292
      8          1           0       -1.560747   -0.832707    1.514925
      9          8           0        0.138091    1.458706   -0.631252
     10          8           0        1.037677   -0.770910    0.056444
     11          1           0        0.630534    1.273091    1.548683
     12          1           0       -0.217657    1.201304   -1.483782
     13          6           0        2.430231   -0.698041   -0.141387
     14          1           0        2.813869   -1.712338   -0.264745
     15          1           0        2.933591   -0.238423    0.717764
     16          1           0        2.677786   -0.118518   -1.035792
 ---------------------------------------------------------------------

 SCF Done:  E(RPBE1PBE) =  -559.985339737     A.U. after   12 cycles

 The electronic state is 1-A.
 Alpha  occ. eigenvalues --  -66.21110 -19.21254 -19.18735 -10.26022 -10.21519
 Alpha  occ. eigenvalues --  -10.19696  -5.30215  -3.63951  -3.63462  -3.63299
 Alpha  occ. eigenvalues --   -1.10581  -1.02625  -0.77661  -0.69944  -0.63850
 Alpha  occ. eigenvalues --   -0.61099  -0.51480  -0.47226  -0.46597  -0.45971
 Alpha  occ. eigenvalues --   -0.43508  -0.42628  -0.41129  -0.39494  -0.36363
 Alpha  occ. eigenvalues --   -0.35670  -0.31152  -0.29702  -0.28505
 Alpha virt. eigenvalues --    0.01837   0.06167   0.06595   0.08461   0.09128
 Alpha virt. eigenvalues --    0.10524   0.11379   0.12052   0.12551   0.13511
 Alpha virt. eigenvalues --    0.15248   0.15598   0.17001   0.17624   0.19760

 Mulliken atomic charges:
              1
     1  H    0.130753
     2  C   -0.400420
     3  C   -0.335741
     4  H    0.097339
     5  H    0.144951
     6  H    0.115280
     7  Si   0.458541
     8  H    0.113597
     9  O   -0.345254
    10  O   -0.360048
    11  H   -0.095168
    12  H    0.333736
    13  C   -0.211320
    14  H    0.127716
    15  H    0.117622
    16  H    0.108416
 Sum of Mulliken atomic charges =   0.00000

 Dipole moment (field-independent basis, Debye):
    X=             -0.2585    Y=              0.0622    Z=             -1.6373  Tot=              1.6588
 Quadrupole moment (field-independent basis, Debye-Ang):
   XX=            -41.8754   YY=            -47.9327   ZZ=            -42.8355
   XY=             -1.4502   XZ=             -0.1434   YZ=             -1.8243

 Normal termination of Gaussian 09 at Fri Aug 10 06:04:24 2018.
