 Gaussian 09, Revision C.01,
 Gaussian 09:  EM64L-G09RevC.01 23-Sep-2011

 --------------------------------------
 #SP PBE1PBE/Def2TZVP geom=connectivity
 --------------------------------------

 99/5=1,9=1/99;
 -------------
 Structure: 32
 -------------
 Charge =  0 Multiplicity = 1

                         Standard orientation:
 ---------------------------------------------------------------------
 Center     Atomic      Atomic             Coordinates (Angstroms)
 Number     Number       Type             X           Y           Z
 ---------------------------------------------------------------------
      1          1           0       -3.225505   -1.242824   -0.313555
      2          6           0       -2.232157   -0.847826   -0.541337
      3          6           0       -1.618313   -0.140212    0.665959
      4          1           0       -2.348256   -0.169064   -1.391700
      5          1           0       -1.610222   -1.684676   -0.868580
      6          1           0       -2.256674    0.690248    0.987259
      7         14           0        0.091486    0.534447    0.376736
      8          1           0       -1.560527   -0.826685    1.517361
      9          8           0        0.137448    1.452464   -0.633173
     10          8           0        1.037825   -0.769879    0.058548
     11          1           0        0.630536    1.279448    1.543424
     12          1           0       -0.217330    1.192668   -1.484029
     13          6           0        2.430363   -0.697580   -0.139608
     14          1           0        2.814100   -1.712275   -0.259324
     15          1           0        2.933713   -0.234814    0.717858
     16          1           0        2.677816   -0.121261   -1.036108
 ---------------------------------------------------------------------

 SCF Done:  E(RPBE1PBE) =  -559.980938411     A.U. after   12 cycles

 The electronic state is 1-A.
 Alpha  occ. eigenvalues --  -66.20996 -19.21248 -19.18707 -10.26014 -10.21514
 Alpha  occ. eigenvalues --  -10.19668  -5.30156  -3.63907  -3.63394  -3.63230
 Alpha  occ. eigenvalues --   -1.10774  -1.02607  -0.77648  -0.69934  -0.63870
 Alpha  occ. eigenvalues --   -0.61213  -0.51486  -0.47281  -0.46612  -0.45962
 Alpha  occ. eigenvalues --   -0.43528  -0.42683  -0.41195  -0.39491  -0.36342
 Alpha  occ. eigenvalues --   -0.35660  -0.31132  -0.29683  -0.28477
 Alpha virt. eigenvalues --    0.01838   0.06172   0.06611   0.08468   0.09131
 Alpha virt. eigenvalues --    0.10530   0.11389   0.12061   0.12556   0.13511
 Alpha virt. eigenvalues --    0.15257   0.15614   0.17020   0.17647   0.19768

 Mulliken atomic charges:
              1
     1  H    0.130760
     2  C   -0.400591
     3  C   -0.336505
     4  H    0.097205
     5  H    0.144996
     6  H    0.115129
     7  Si   0.456890
     8  H    0.113491
     9  O   -0.340747
    10  O   -0.360677
    11  H   -0.095904
    12  H    0.333840
    13  C   -0.211378
    14  H    0.127701
    15  H    0.117628
    16  H    0.108163
 Sum of Mulliken atomic charges =   0.00000

 Dipole moment (field-independent basis, Debye):
    X=             -0.2561    Y=              0.0737    Z=             -1.6540  Tot=              1.6753
 Quadrupole moment (field-independent basis, Debye-Ang):
   XX=            -41.8896   YY=            -47.9048   ZZ=            -42.8331
   XY=             -1.4446   XZ=             -0.1441   YZ=             -1.8283

 Normal termination of Gaussian 09 at Fri Aug 10 05:44:20 2018.
