 Gaussian 09, Revision C.01,
 Gaussian 09:  EM64L-G09RevC.01 23-Sep-2011

 --------------------------------------
 #SP PBE1PBE/Def2TZVP geom=connectivity
 --------------------------------------

 99/5=1,9=1/99;
 -------------
 Structure: 39
 -------------
 Charge =  0 Multiplicity = 1

                         Standard orientation:
 ---------------------------------------------------------------------
 Center     Atomic      Atomic             Coordinates (Angstroms)
 Number     Number       Type             X           Y           Z
 ---------------------------------------------------------------------
      1          1           0       -3.225743   -1.241099   -0.322884
      2          6           0       -2.232310   -0.844334   -0.547199
      3          6           0       -1.618481   -0.147106    0.666132
      4          1           0       -2.348215   -0.158350   -1.391773
      5          1           0       -1.610472   -1.678470   -0.881480
      6          1           0       -2.256747    0.680693    0.994415
      7         14           0        0.091452    0.529720    0.382831
      8          1           0       -1.560891   -0.840801    1.511673
      9          8           0        0.138164    1.465889   -0.629255
     10          8           0        1.037621   -0.772002    0.053663
     11          1           0        0.630497    1.264692    1.555865
     12          1           0       -0.216566    1.213392   -1.482326
     13          6           0        2.430190   -0.698239   -0.143728
     14          1           0        2.813782   -1.711941   -0.272027
     15          1           0        2.933524   -0.242859    0.717691
     16          1           0        2.677827   -0.114359   -1.035272
 ---------------------------------------------------------------------

 SCF Done:  E(RPBE1PBE) =  -559.990757759     A.U. after   12 cycles

 The electronic state is 1-A.
 Alpha  occ. eigenvalues --  -66.21258 -19.21241 -19.18768 -10.26033 -10.21522
 Alpha  occ. eigenvalues --  -10.19727  -5.30293  -3.64012  -3.63553  -3.63390
 Alpha  occ. eigenvalues --   -1.10382  -1.02648  -0.77673  -0.69959  -0.63842
 Alpha  occ. eigenvalues --   -0.61009  -0.51472  -0.47162  -0.46582  -0.45979
 Alpha  occ. eigenvalues --   -0.43484  -0.42556  -0.41044  -0.39499  -0.36392
 Alpha  occ. eigenvalues --   -0.35680  -0.31177  -0.29721  -0.28541
 Alpha virt. eigenvalues --    0.01875   0.06159   0.06583   0.08450   0.09128
 Alpha virt. eigenvalues --    0.10519   0.11370   0.12041   0.12548   0.13517
 Alpha virt. eigenvalues --    0.15234   0.15578   0.16976   0.17605   0.19751

 Mulliken atomic charges:
              1
     1  H    0.130719
     2  C   -0.400180
     3  C   -0.334725
     4  H    0.097554
     5  H    0.144850
     6  H    0.115423
     7  Si   0.460939
     8  H    0.113681
     9  O   -0.350564
    10  O   -0.359271
    11  H   -0.094162
    12  H    0.332953
    13  C   -0.211266
    14  H    0.127740
    15  H    0.117601
    16  H    0.108708
 Sum of Mulliken atomic charges =   0.00000

 Dipole moment (field-independent basis, Debye):
    X=             -0.2572    Y=              0.0518    Z=             -1.6139  Tot=              1.6351
 Quadrupole moment (field-independent basis, Debye-Ang):
   XX=            -41.8593   YY=            -47.9568   ZZ=            -42.8395
   XY=             -1.4530   XZ=             -0.1462   YZ=             -1.8199

 Normal termination of Gaussian 09 at Fri Aug 10 06:16:51 2018.
