 Gaussian 09, Revision C.01,
 Gaussian 09:  EM64L-G09RevC.01 23-Sep-2011

 --------------------------------------
 #SP PBE1PBE/Def2TZVP geom=connectivity
 --------------------------------------

 99/5=1,9=1/99;
 -------------
 Structure: 36
 -------------
 Charge =  0 Multiplicity = 1

                         Standard orientation:
 ---------------------------------------------------------------------
 Center     Atomic      Atomic             Coordinates (Angstroms)
 Number     Number       Type             X           Y           Z
 ---------------------------------------------------------------------
      1          1           0       -3.225449   -1.242188   -0.318840
      2          6           0       -2.232094   -0.846083   -0.544664
      3          6           0       -1.618267   -0.144404    0.666099
      4          1           0       -2.348174   -0.163159   -1.391691
      5          1           0       -1.610159   -1.681323   -0.875996
      6          1           0       -2.256629    0.684475    0.991456
      7         14           0        0.091541    0.531655    0.380219
      8          1           0       -1.560501   -0.835044    1.514124
      9          8           0        0.137161    1.460695   -0.630641
     10          8           0        1.037877   -0.771101    0.055655
     11          1           0        0.630575    1.270922    1.550556
     12          1           0       -0.217677    1.204727   -1.483702
     13          6           0        2.430419   -0.697840   -0.142119
     14          1           0        2.814152   -1.711939   -0.266804
     15          1           0        2.933757   -0.239289    0.717614
     16          1           0        2.677892   -0.117133   -1.035778
 ---------------------------------------------------------------------

 SCF Done:  E(RPBE1PBE) =  -559.986791267     A.U. after   12 cycles

 The electronic state is 1-A.
 Alpha  occ. eigenvalues --  -66.21149 -19.21251 -19.18746 -10.26027 -10.21518
 Alpha  occ. eigenvalues --  -10.19700  -5.30235  -3.63967  -3.63485  -3.63322
 Alpha  occ. eigenvalues --   -1.10526  -1.02633  -0.77661  -0.69950  -0.63847
 Alpha  occ. eigenvalues --   -0.61076  -0.51479  -0.47208  -0.46594  -0.45972
 Alpha  occ. eigenvalues --   -0.43501  -0.42609  -0.41104  -0.39496  -0.36370
 Alpha  occ. eigenvalues --   -0.35670  -0.31160  -0.29707  -0.28512
 Alpha virt. eigenvalues --    0.01848   0.06164   0.06592   0.08459   0.09127
 Alpha virt. eigenvalues --    0.10523   0.11379   0.12049   0.12550   0.13513
 Alpha virt. eigenvalues --    0.15242   0.15593   0.16997   0.17620   0.19759

 Mulliken atomic charges:
              1
     1  H    0.130736
     2  C   -0.400369
     3  C   -0.335447
     4  H    0.097376
     5  H    0.144905
     6  H    0.115294
     7  Si   0.459277
     8  H    0.113573
     9  O   -0.346710
    10  O   -0.359833
    11  H   -0.094885
    12  H    0.333565
    13  C   -0.211327
    14  H    0.127730
    15  H    0.117628
    16  H    0.108487
 Sum of Mulliken atomic charges =   0.00000

 Dipole moment (field-independent basis, Debye):
    X=             -0.2553    Y=              0.0601    Z=             -1.6323  Tot=              1.6532
 Quadrupole moment (field-independent basis, Debye-Ang):
   XX=            -41.8720   YY=            -47.9387   ZZ=            -42.8343
   XY=             -1.4492   XZ=             -0.1444   YZ=             -1.8247

 Normal termination of Gaussian 09 at Fri Aug 10 06:08:37 2018.
