 Gaussian 09, Revision C.01,
 Gaussian 09:  EM64L-G09RevC.01 23-Sep-2011

 --------------------------------------
 #SP PBE1PBE/Def2TZVP geom=connectivity
 --------------------------------------

 99/5=1,9=1/99;
 -------------
 Structure: 41
 -------------
 Charge =  0 Multiplicity = 1

                         Standard orientation:
 ---------------------------------------------------------------------
 Center     Atomic      Atomic             Coordinates (Angstroms)
 Number     Number       Type             X           Y           Z
 ---------------------------------------------------------------------
      1          1           0       -3.225876   -1.240446   -0.325645
      2          6           0       -2.232405   -0.843190   -0.548922
      3          6           0       -1.618570   -0.149066    0.666184
      4          1           0       -2.348228   -0.155072   -1.391770
      5          1           0       -1.610616   -1.676528   -0.885281
      6          1           0       -2.256786    0.677950    0.996527
      7         14           0        0.091424    0.528345    0.384651
      8          1           0       -1.561062   -0.844893    1.509977
      9          8           0        0.138684    1.469691   -0.628213
     10          8           0        1.037509   -0.772614    0.052240
     11          1           0        0.630480    1.260319    1.559553
     12          1           0       -0.216942    1.219006   -1.481726
     13          6           0        2.430092   -0.698457   -0.144913
     14          1           0        2.813614   -1.711860   -0.275750
     15          1           0        2.933426   -0.245285    0.717670
     16          1           0        2.677804   -0.112351   -1.034974
 ---------------------------------------------------------------------

 SCF Done:  E(RPBE1PBE) =  -559.993476352     A.U. after   13 cycles

 The electronic state is 1-A.
 Alpha  occ. eigenvalues --  -66.21334 -19.21240 -19.18784 -10.26037 -10.21526
 Alpha  occ. eigenvalues --  -10.19746  -5.30334  -3.64045  -3.63599  -3.63437
 Alpha  occ. eigenvalues --   -1.10262  -1.02658  -0.77682  -0.69966  -0.63835
 Alpha  occ. eigenvalues --   -0.60940  -0.51468  -0.47130  -0.46574  -0.45985
 Alpha  occ. eigenvalues --   -0.43473  -0.42516  -0.41001  -0.39499  -0.36408
 Alpha  occ. eigenvalues --   -0.35687  -0.31189  -0.29732  -0.28561
 Alpha virt. eigenvalues --    0.01882   0.06155   0.06575   0.08444   0.09126
 Alpha virt. eigenvalues --    0.10516   0.11363   0.12035   0.12545   0.13518
 Alpha virt. eigenvalues --    0.15227   0.15568   0.16961   0.17594   0.19745

 Mulliken atomic charges:
              1
     1  H    0.130716
     2  C   -0.400062
     3  C   -0.334228
     4  H    0.097651
     5  H    0.144829
     6  H    0.115524
     7  Si   0.462061
     8  H    0.113756
     9  O   -0.353501
    10  O   -0.358861
    11  H   -0.093628
    12  H    0.332759
    13  C   -0.211226
    14  H    0.127744
    15  H    0.117582
    16  H    0.108884
 Sum of Mulliken atomic charges =   0.00000

 Dipole moment (field-independent basis, Debye):
    X=             -0.2597    Y=              0.0446    Z=             -1.6011  Tot=              1.6226
 Quadrupole moment (field-independent basis, Debye-Ang):
   XX=            -41.8494   YY=            -47.9733   ZZ=            -42.8427
   XY=             -1.4564   XZ=             -0.1447   YZ=             -1.8149

 Normal termination of Gaussian 09 at Fri Aug 10 01:25:59 2018.
