 Gaussian 09, Revision C.01,
 Gaussian 09:  EM64L-G09RevC.01 23-Sep-2011

 --------------------------------------
 #SP PBE1PBE/Def2TZVP geom=connectivity
 --------------------------------------

 99/5=1,9=1/99;
 -------------
 Structure: 47
 -------------
 Charge =  0 Multiplicity = 1

                         Standard orientation:
 ---------------------------------------------------------------------
 Center     Atomic      Atomic             Coordinates (Angstroms)
 Number     Number       Type             X           Y           Z
 ---------------------------------------------------------------------
      1          1           0       -3.226005   -1.239012   -0.333805
      2          6           0       -2.232476   -0.840204   -0.554035
      3          6           0       -1.618664   -0.155234    0.666267
      4          1           0       -2.348162   -0.145801   -1.391731
      5          1           0       -1.610747   -1.671072   -0.896557
      6          1           0       -2.256820    0.669359    1.002725
      7         14           0        0.091422    0.524081    0.389931
      8          1           0       -1.561294   -0.857347    1.504846
      9          8           0        0.138937    1.481770   -0.624379
     10          8           0        1.037399   -0.774458    0.047890
     11          1           0        0.630463    1.247208    1.570306
     12          1           0       -0.215813    1.237528   -1.480907
     13          6           0        2.430004   -0.698977   -0.148596
     14          1           0        2.813431   -1.711415   -0.286966
     15          1           0        2.933319   -0.252309    0.717384
     16          1           0        2.677847   -0.106269   -1.034238
 ---------------------------------------------------------------------

 SCF Done:  E(RPBE1PBE) =  -560.001177699     A.U. after   13 cycles

 The electronic state is 1-A.
 Alpha  occ. eigenvalues --  -66.21558 -19.21233 -19.18841 -10.26055 -10.21531
 Alpha  occ. eigenvalues --  -10.19795  -5.30455  -3.64142  -3.63738  -3.63576
 Alpha  occ. eigenvalues --   -1.09901  -1.02695  -0.77701  -0.69989  -0.63816
 Alpha  occ. eigenvalues --   -0.60740  -0.51459  -0.47038  -0.46553  -0.45997
 Alpha  occ. eigenvalues --   -0.43445  -0.42391  -0.40868  -0.39489  -0.36450
 Alpha  occ. eigenvalues --   -0.35702  -0.31229  -0.29766  -0.28614
 Alpha virt. eigenvalues --    0.01905   0.06141   0.06547   0.08429   0.09120
 Alpha virt. eigenvalues --    0.10505   0.11346   0.12017   0.12538   0.13522
 Alpha virt. eigenvalues --    0.15201   0.15539   0.16923   0.17552   0.19730

 Mulliken atomic charges:
              1
     1  H    0.130674
     2  C   -0.399724
     3  C   -0.332631
     4  H    0.097955
     5  H    0.144681
     6  H    0.115766
     7  Si   0.465892
     8  H    0.113896
     9  O   -0.362478
    10  O   -0.357660
    11  H   -0.092109
    12  H    0.332176
    13  C   -0.211145
    14  H    0.127787
    15  H    0.117573
    16  H    0.109347
 Sum of Mulliken atomic charges =   0.00000

 Dipole moment (field-independent basis, Debye):
    X=             -0.2583    Y=              0.0242    Z=             -1.5682  Tot=              1.5895
 Quadrupole moment (field-independent basis, Debye-Ang):
   XX=            -41.8243   YY=            -48.0226   ZZ=            -42.8428
   XY=             -1.4629   XZ=             -0.1482   YZ=             -1.8113

 Normal termination of Gaussian 09 at Fri Aug 10 02:09:32 2018.
