 Gaussian 09, Revision C.01,
 Gaussian 09:  EM64L-G09RevC.01 23-Sep-2011

 --------------------------------------
 #SP PBE1PBE/Def2TZVP geom=connectivity
 --------------------------------------

 99/5=1,9=1/99;
 -------------
 Structure: 45
 -------------
 Charge =  0 Multiplicity = 1

                         Standard orientation:
 ---------------------------------------------------------------------
 Center     Atomic      Atomic             Coordinates (Angstroms)
 Number     Number       Type             X           Y           Z
 ---------------------------------------------------------------------
      1          1           0       -3.225847   -1.239724   -0.330977
      2          6           0       -2.232362   -0.841394   -0.552270
      3          6           0       -1.618550   -0.153263    0.666253
      4          1           0       -2.348148   -0.149137   -1.391727
      5          1           0       -1.610578   -1.673078   -0.892703
      6          1           0       -2.256761    0.672130    1.000639
      7         14           0        0.091465    0.525492    0.388104
      8          1           0       -1.561080   -0.853232    1.506616
      9          8           0        0.138407    1.477947   -0.625517
     10          8           0        1.037536   -0.773834    0.049329
     11          1           0        0.630499    1.251671    1.566606
     12          1           0       -0.216362    1.231493   -1.481402
     13          6           0        2.430125   -0.698734   -0.147417
     14          1           0        2.813633   -1.711489   -0.283224
     15          1           0        2.933443   -0.249818    0.717398
     16          1           0        2.677875   -0.108264   -1.034578
 ---------------------------------------------------------------------

 SCF Done:  E(RPBE1PBE) =  -559.998667216     A.U. after   13 cycles

 The electronic state is 1-A.
 Alpha  occ. eigenvalues --  -66.21483 -19.21238 -19.18824 -10.26050 -10.21528
 Alpha  occ. eigenvalues --  -10.19777  -5.30414  -3.64108  -3.63691  -3.63529
 Alpha  occ. eigenvalues --   -1.10017  -1.02685  -0.77693  -0.69982  -0.63820
 Alpha  occ. eigenvalues --   -0.60804  -0.51463  -0.47067  -0.46560  -0.45992
 Alpha  occ. eigenvalues --   -0.43454  -0.42434  -0.40910  -0.39494  -0.36435
 Alpha  occ. eigenvalues --   -0.35696  -0.31217  -0.29756  -0.28595
 Alpha virt. eigenvalues --    0.01895   0.06146   0.06556   0.08435   0.09121
 Alpha virt. eigenvalues --    0.10508   0.11353   0.12023   0.12540   0.13520
 Alpha virt. eigenvalues --    0.15209   0.15548   0.16938   0.17565   0.19736

 Mulliken atomic charges:
              1
     1  H    0.130684
     2  C   -0.399841
     3  C   -0.333154
     4  H    0.097842
     5  H    0.144720
     6  H    0.115678
     7  Si   0.464647
     8  H    0.113830
     9  O   -0.359526
    10  O   -0.358053
    11  H   -0.092629
    12  H    0.332428
    13  C   -0.211182
    14  H    0.127778
    15  H    0.117587
    16  H    0.109190
 Sum of Mulliken atomic charges =   0.00000

 Dipole moment (field-independent basis, Debye):
    X=             -0.2573    Y=              0.0309    Z=             -1.5803  Tot=              1.6014
 Quadrupole moment (field-independent basis, Debye-Ang):
   XX=            -41.8329   YY=            -48.0071   ZZ=            -42.8417
   XY=             -1.4603   XZ=             -0.1474   YZ=             -1.8139

 Normal termination of Gaussian 09 at Fri Aug 10 01:54:57 2018.
