 Gaussian 09, Revision C.01,
 Gaussian 09:  EM64L-G09RevC.01 23-Sep-2011

 --------------------------------------
 #SP PBE1PBE/Def2TZVP geom=connectivity
 --------------------------------------

 99/5=1,9=1/99;
 -------------
 Structure: 49
 -------------
 Charge =  0 Multiplicity = 1

                         Standard orientation:
 ---------------------------------------------------------------------
 Center     Atomic      Atomic             Coordinates (Angstroms)
 Number     Number       Type             X           Y           Z
 ---------------------------------------------------------------------
      1          1           0       -3.225882   -1.238742   -0.336214
      2          6           0       -2.232369   -0.839386   -0.555527
      3          6           0       -1.618585   -0.157198    0.666346
      4          1           0       -2.348086   -0.143064   -1.391624
      5          1           0       -1.610605   -1.669438   -0.899959
      6          1           0       -2.256776    0.666593    1.004700
      7         14           0        0.091472    0.522824    0.391571
      8          1           0       -1.561184   -0.861234    1.503309
      9          8           0        0.138477    1.485144   -0.623449
     10          8           0        1.037503   -0.774885    0.046545
     11          1           0        0.630482    1.243259    1.573605
     12          1           0       -0.216191    1.243192   -1.479597
     13          6           0        2.430105   -0.698892   -0.149769
     14          1           0        2.813575   -1.710993   -0.290466
     15          1           0        2.933401   -0.254195    0.717236
     16          1           0        2.677922   -0.104138   -1.034046
 ---------------------------------------------------------------------

 SCF Done:  E(RPBE1PBE) =  -560.003373284     A.U. after   13 cycles

 The electronic state is 1-A.
 Alpha  occ. eigenvalues --  -66.21627 -19.21222 -19.18858 -10.26061 -10.21533
 Alpha  occ. eigenvalues --  -10.19809  -5.30493  -3.64174  -3.63782  -3.63619
 Alpha  occ. eigenvalues --   -1.09814  -1.02708  -0.77707  -0.69997  -0.63816
 Alpha  occ. eigenvalues --   -0.60701  -0.51457  -0.47015  -0.46548  -0.46001
 Alpha  occ. eigenvalues --   -0.43439  -0.42353  -0.40833  -0.39485  -0.36464
 Alpha  occ. eigenvalues --   -0.35706  -0.31242  -0.29776  -0.28632
 Alpha virt. eigenvalues --    0.01927   0.06136   0.06543   0.08424   0.09121
 Alpha virt. eigenvalues --    0.10502   0.11342   0.12011   0.12536   0.13524
 Alpha virt. eigenvalues --    0.15191   0.15531   0.16912   0.17546   0.19726

 Mulliken atomic charges:
              1
     1  H    0.130659
     2  C   -0.399606
     3  C   -0.332190
     4  H    0.098051
     5  H    0.144638
     6  H    0.115837
     7  Si   0.467073
     8  H    0.113928
     9  O   -0.364915
    10  O   -0.357295
    11  H   -0.091629
    12  H    0.331715
    13  C   -0.211140
    14  H    0.127800
    15  H    0.117566
    16  H    0.109507
 Sum of Mulliken atomic charges =   0.00000

 Dipole moment (field-independent basis, Debye):
    X=             -0.2576    Y=              0.0187    Z=             -1.5562  Tot=              1.5775
 Quadrupole moment (field-independent basis, Debye-Ang):
   XX=            -41.8145   YY=            -48.0342   ZZ=            -42.8472
   XY=             -1.4641   XZ=             -0.1480   YZ=             -1.8076

 Normal termination of Gaussian 09 at Fri Aug 10 02:24:00 2018.
