 Gaussian 09, Revision C.01,
 Gaussian 09:  EM64L-G09RevC.01 23-Sep-2011

 --------------------------------------
 #SP PBE1PBE/Def2TZVP geom=connectivity
 --------------------------------------

 99/5=1,9=1/99;
 -------------
 Structure: 44
 -------------
 Charge =  0 Multiplicity = 1

                         Standard orientation:
 ---------------------------------------------------------------------
 Center     Atomic      Atomic             Coordinates (Angstroms)
 Number     Number       Type             X           Y           Z
 ---------------------------------------------------------------------
      1          1           0       -3.225826   -1.240000   -0.329363
      2          6           0       -2.232352   -0.841979   -0.551258
      3          6           0       -1.618535   -0.152035    0.666236
      4          1           0       -2.348162   -0.150968   -1.391738
      5          1           0       -1.610557   -1.674155   -0.890470
      6          1           0       -2.256757    0.673840    0.999410
      7         14           0        0.091463    0.526340    0.387060
      8          1           0       -1.561041   -0.850758    1.507633
      9          8           0        0.138358    1.475540   -0.626262
     10          8           0        1.037553   -0.773468    0.050194
     11          1           0        0.630500    1.254272    1.564479
     12          1           0       -0.216419    1.227812   -1.481777
     13          6           0        2.430139   -0.698634   -0.146681
     14          1           0        2.813663   -1.711581   -0.280995
     15          1           0        2.933460   -0.248429    0.717462
     16          1           0        2.677865   -0.109472   -1.034719
 ---------------------------------------------------------------------

 SCF Done:  E(RPBE1PBE) =  -559.997139136     A.U. after   13 cycles

 The electronic state is 1-A.
 Alpha  occ. eigenvalues --  -66.21438 -19.21240 -19.18813 -10.26047 -10.21527
 Alpha  occ. eigenvalues --  -10.19766  -5.30389  -3.64089  -3.63663  -3.63501
 Alpha  occ. eigenvalues --   -1.10086  -1.02677  -0.77689  -0.69978  -0.63823
 Alpha  occ. eigenvalues --   -0.60842  -0.51464  -0.47085  -0.46564  -0.45990
 Alpha  occ. eigenvalues --   -0.43459  -0.42458  -0.40936  -0.39496  -0.36426
 Alpha  occ. eigenvalues --   -0.35692  -0.31209  -0.29749  -0.28584
 Alpha virt. eigenvalues --    0.01889   0.06148   0.06561   0.08438   0.09122
 Alpha virt. eigenvalues --    0.10510   0.11356   0.12027   0.12542   0.13519
 Alpha virt. eigenvalues --    0.15214   0.15554   0.16945   0.17573   0.19739

 Mulliken atomic charges:
              1
     1  H    0.130692
     2  C   -0.399913
     3  C   -0.333461
     4  H    0.097780
     5  H    0.144747
     6  H    0.115625
     7  Si   0.463897
     8  H    0.113798
     9  O   -0.357780
    10  O   -0.358294
    11  H   -0.092929
    12  H    0.332584
    13  C   -0.211197
    14  H    0.127770
    15  H    0.117590
    16  H    0.109092
 Sum of Mulliken atomic charges =   0.00000

 Dipole moment (field-independent basis, Debye):
    X=             -0.2573    Y=              0.0351    Z=             -1.5872  Tot=              1.6083
 Quadrupole moment (field-independent basis, Debye-Ang):
   XX=            -41.8385   YY=            -47.9974   ZZ=            -42.8405
   XY=             -1.4588   XZ=             -0.1470   YZ=             -1.8152

 Normal termination of Gaussian 09 at Fri Aug 10 01:47:38 2018.
