 Gaussian 09, Revision C.01,
 Gaussian 09:  EM64L-G09RevC.01 23-Sep-2011

 --------------------------------------
 #SP PBE1PBE/Def2TZVP geom=connectivity
 --------------------------------------

 99/5=1,9=1/99;
 -------------
 Structure: 46
 -------------
 Charge =  0 Multiplicity = 1

                         Standard orientation:
 ---------------------------------------------------------------------
 Center     Atomic      Atomic             Coordinates (Angstroms)
 Number     Number       Type             X           Y           Z
 ---------------------------------------------------------------------
      1          1           0       -3.225984   -1.239291   -0.332193
      2          6           0       -2.232466   -0.840791   -0.553025
      3          6           0       -1.618649   -0.154006    0.666254
      4          1           0       -2.348176   -0.147629   -1.391746
      5          1           0       -1.610726   -1.672153   -0.894328
      6          1           0       -2.256816    0.671071    1.001501
      7         14           0        0.091420    0.524932    0.388890
      8          1           0       -1.561255   -0.854877    1.505869
      9          8           0        0.138887    1.479361   -0.625131
     10          8           0        1.037416   -0.774094    0.048757
     11          1           0        0.630463    1.249813    1.568187
     12          1           0       -0.215869    1.233846   -1.481292
     13          6           0        2.430017   -0.698877   -0.147861
     14          1           0        2.813462   -1.711512   -0.284739
     15          1           0        2.933336   -0.250920    0.717452
     16          1           0        2.677837   -0.107474   -1.034381
 ---------------------------------------------------------------------

 SCF Done:  E(RPBE1PBE) =  -559.999692880     A.U. after   13 cycles

 The electronic state is 1-A.
 Alpha  occ. eigenvalues --  -66.21514 -19.21235 -19.18829 -10.26051 -10.21530
 Alpha  occ. eigenvalues --  -10.19785  -5.30430  -3.64122  -3.63710  -3.63548
 Alpha  occ. eigenvalues --   -1.09970  -1.02687  -0.77697  -0.69984  -0.63818
 Alpha  occ. eigenvalues --   -0.60778  -0.51460  -0.47055  -0.46557  -0.45994
 Alpha  occ. eigenvalues --   -0.43450  -0.42416  -0.40893  -0.39492  -0.36441
 Alpha  occ. eigenvalues --   -0.35699  -0.31221  -0.29759  -0.28603
 Alpha virt. eigenvalues --    0.01899   0.06144   0.06552   0.08432   0.09120
 Alpha virt. eigenvalues --    0.10507   0.11350   0.12021   0.12540   0.13521
 Alpha virt. eigenvalues --    0.15206   0.15544   0.16931   0.17560   0.19733

 Mulliken atomic charges:
              1
     1  H    0.130681
     2  C   -0.399796
     3  C   -0.332936
     4  H    0.097893
     5  H    0.144708
     6  H    0.115713
     7  Si   0.465135
     8  H    0.113864
     9  O   -0.360729
    10  O   -0.357900
    11  H   -0.092408
    12  H    0.332332
    13  C   -0.211159
    14  H    0.127778
    15  H    0.117575
    16  H    0.109248
 Sum of Mulliken atomic charges =   0.00000

 Dipole moment (field-independent basis, Debye):
    X=             -0.2582    Y=              0.0285    Z=             -1.5752  Tot=              1.5965
 Quadrupole moment (field-independent basis, Debye-Ang):
   XX=            -41.8300   YY=            -48.0128   ZZ=            -42.8416
   XY=             -1.4614   XZ=             -0.1479   YZ=             -1.8126

 Normal termination of Gaussian 09 at Fri Aug 10 02:02:16 2018.
