 Gaussian 09, Revision C.01,
 Gaussian 09:  EM64L-G09RevC.01 23-Sep-2011

 --------------------------------------
 #SP PBE1PBE/Def2TZVP geom=connectivity
 --------------------------------------

 99/5=1,9=1/99;
 -------------
 Structure: 48
 -------------
 Charge =  0 Multiplicity = 1

                         Standard orientation:
 ---------------------------------------------------------------------
 Center     Atomic      Atomic             Coordinates (Angstroms)
 Number     Number       Type             X           Y           Z
 ---------------------------------------------------------------------
      1          1           0       -3.226118   -1.238617   -0.334946
      2          6           0       -2.232561   -0.839637   -0.554739
      3          6           0       -1.618738   -0.155966    0.666285
      4          1           0       -2.348189   -0.144360   -1.391719
      5          1           0       -1.610871   -1.670185   -0.898108
      6          1           0       -2.256856    0.668314    1.003583
      7         14           0        0.091392    0.523539    0.390693
      8          1           0       -1.561427   -0.858950    1.504138
      9          8           0        0.139410    1.483171   -0.624043
     10          8           0        1.037304   -0.774699    0.047329
     11          1           0        0.630446    1.245413    1.571828
     12          1           0       -0.216242    1.239471   -1.480631
     13          6           0        2.429918   -0.699092   -0.149047
     14          1           0        2.813291   -1.711408   -0.288456
     15          1           0        2.933237   -0.253350    0.717407
     16          1           0        2.677814   -0.105481   -1.034069
 ---------------------------------------------------------------------

 SCF Done:  E(RPBE1PBE) =  -560.002160948     A.U. after   13 cycles

 The electronic state is 1-A.
 Alpha  occ. eigenvalues --  -66.21588 -19.21232 -19.18845 -10.26056 -10.21534
 Alpha  occ. eigenvalues --  -10.19804  -5.30472  -3.64155  -3.63757  -3.63595
 Alpha  occ. eigenvalues --   -1.09850  -1.02697  -0.77706  -0.69991  -0.63814
 Alpha  occ. eigenvalues --   -0.60707  -0.51456  -0.47027  -0.46549  -0.45999
 Alpha  occ. eigenvalues --   -0.43442  -0.42372  -0.40853  -0.39486  -0.36456
 Alpha  occ. eigenvalues --   -0.35706  -0.31233  -0.29769  -0.28624
 Alpha virt. eigenvalues --    0.01906   0.06140   0.06543   0.08426   0.09119
 Alpha virt. eigenvalues --    0.10503   0.11343   0.12014   0.12537   0.13521
 Alpha virt. eigenvalues --    0.15198   0.15534   0.16916   0.17549   0.19727

 Mulliken atomic charges:
              1
     1  H    0.130679
     2  C   -0.399679
     3  C   -0.332448
     4  H    0.097991
     5  H    0.144687
     6  H    0.115815
     7  Si   0.466298
     8  H    0.113941
     9  O   -0.363686
    10  O   -0.357500
    11  H   -0.091879
    12  H    0.332138
    13  C   -0.211124
    14  H    0.127783
    15  H    0.117558
    16  H    0.109425
 Sum of Mulliken atomic charges =   0.00000

 Dipole moment (field-independent basis, Debye):
    X=             -0.2607    Y=              0.0210    Z=             -1.5623  Tot=              1.5841
 Quadrupole moment (field-independent basis, Debye-Ang):
   XX=            -41.8199   YY=            -48.0298   ZZ=            -42.8446
   XY=             -1.4649   XZ=             -0.1464   YZ=             -1.8078

 Normal termination of Gaussian 09 at Fri Aug 10 02:16:46 2018.
