 Gaussian 09, Revision C.01,
 Gaussian 09:  EM64L-G09RevC.01 23-Sep-2011

 --------------------------------------
 #SP PBE1PBE/Def2TZVP geom=connectivity
 --------------------------------------

 99/5=1,9=1/99;
 ------------
 Structure: 4
 ------------
 Charge =  0 Multiplicity = 1

                         Standard orientation:
 ---------------------------------------------------------------------
 Center     Atomic      Atomic             Coordinates (Angstroms)
 Number     Number       Type             X           Y           Z
 ---------------------------------------------------------------------
      1          1           0        3.224603   -1.249145    0.275680
      2          6           0        2.231582   -0.861677    0.517394
      3          6           0        1.617667   -0.112428   -0.664478
      4          1           0        2.348426   -0.212761    1.390646
      5          1           0        1.609284   -1.708973    0.815799
      6          1           0        2.256390    0.728266   -0.957171
      7         14           0       -0.091614    0.552824   -0.351397
      8          1           0        1.559131   -0.769048   -1.539060
      9          8           0       -0.134742    1.399152    0.647013
     10          8           0       -1.038596   -0.761168   -0.078051
     11          1           0       -0.630696    1.337993   -1.491425
     12          1           0        0.220227    1.109915    1.488237
     13          6           0       -2.431010   -0.694953    0.123076
     14          1           0       -2.815300   -1.712957    0.207834
     15          1           0       -2.934434   -0.202554   -0.717679
     16          1           0       -2.677760   -0.149803    1.039054
 ---------------------------------------------------------------------

 SCF Done:  E(RPBE1PBE) =  -559.930931107     A.U. after   12 cycles

 The electronic state is 1-A.
 Alpha  occ. eigenvalues --  -66.19883 -19.21222 -19.18471 -10.25946 -10.21486
 Alpha  occ. eigenvalues --  -10.19436  -5.29635  -3.63548  -3.62757  -3.62593
 Alpha  occ. eigenvalues --   -1.12335  -1.02443  -0.77557  -0.69838  -0.64095
 Alpha  occ. eigenvalues --   -0.61912  -0.51579  -0.47904  -0.46786  -0.45887
 Alpha  occ. eigenvalues --   -0.43829  -0.43059  -0.41742  -0.39382  -0.36137
 Alpha  occ. eigenvalues --   -0.35583  -0.30953  -0.29538  -0.28217
 Alpha virt. eigenvalues --    0.01677   0.06212   0.06721   0.08532   0.09142
 Alpha virt. eigenvalues --    0.10566   0.11460   0.12132   0.12581   0.13482
 Alpha virt. eigenvalues --    0.15314   0.15769   0.17198   0.17792   0.19829

 Mulliken atomic charges:
              1
     1  H    0.130941
     2  C   -0.402262
     3  C   -0.343908
     4  H    0.095893
     5  H    0.145594
     6  H    0.113981
     7  Si   0.442555
     8  H    0.112774
     9  O   -0.302594
    10  O   -0.366669
    11  H   -0.103156
    12  H    0.337431
    13  C   -0.211950
    14  H    0.127563
    15  H    0.117793
    16  H    0.106014
 Sum of Mulliken atomic charges =   0.00000

 Dipole moment (field-independent basis, Debye):
    X=              0.2520    Y=              0.1485    Z=              1.8167  Tot=              1.8401
 Quadrupole moment (field-independent basis, Debye-Ang):
   XX=            -42.0021   YY=            -47.7154   ZZ=            -42.8043
   XY=              1.4145   XZ=             -0.1382   YZ=              1.8671

 Normal termination of Gaussian 09 at Fri Aug 10 02:30:46 2018.
