 Gaussian 09, Revision C.01,
 Gaussian 09:  EM64L-G09RevC.01 23-Sep-2011

 --------------------------------------
 #SP PBE1PBE/Def2TZVP geom=connectivity
 --------------------------------------

 99/5=1,9=1/99;
 -------------
 Structure: 42
 -------------
 Charge =  0 Multiplicity = 1

                         Standard orientation:
 ---------------------------------------------------------------------
 Center     Atomic      Atomic             Coordinates (Angstroms)
 Number     Number       Type             X           Y           Z
 ---------------------------------------------------------------------
      1          1           0       -3.225897   -1.240174   -0.327262
      2          6           0       -2.232415   -0.842606   -0.549937
      3          6           0       -1.618584   -0.150295    0.666205
      4          1           0       -2.348214   -0.153237   -1.391765
      5          1           0       -1.610637   -1.675456   -0.887522
      6          1           0       -2.256790    0.676242    0.997765
      7         14           0        0.091426    0.527500    0.385701
      8          1           0       -1.561101   -0.847373    1.508967
      9          8           0        0.138733    1.472098   -0.627478
     10          8           0        1.037492   -0.772982    0.051375
     11          1           0        0.630480    1.257722    1.561694
     12          1           0       -0.216886    1.222685   -1.481366
     13          6           0        2.430078   -0.698558   -0.145649
     14          1           0        2.813583   -1.711774   -0.277983
     15          1           0        2.933410   -0.246675    0.717611
     16          1           0        2.677814   -0.111138   -1.034837
 ---------------------------------------------------------------------

 SCF Done:  E(RPBE1PBE) =  -559.995065834     A.U. after   13 cycles

 The electronic state is 1-A.
 Alpha  occ. eigenvalues --  -66.21380 -19.21238 -19.18796 -10.26041 -10.21527
 Alpha  occ. eigenvalues --  -10.19757  -5.30358  -3.64064  -3.63627  -3.63465
 Alpha  occ. eigenvalues --   -1.10193  -1.02666  -0.77686  -0.69970  -0.63831
 Alpha  occ. eigenvalues --   -0.60903  -0.51466  -0.47111  -0.46569  -0.45988
 Alpha  occ. eigenvalues --   -0.43468  -0.42492  -0.40975  -0.39498  -0.36416
 Alpha  occ. eigenvalues --   -0.35691  -0.31197  -0.29739  -0.28572
 Alpha virt. eigenvalues --    0.01888   0.06152   0.06570   0.08441   0.09126
 Alpha virt. eigenvalues --    0.10513   0.11359   0.12031   0.12543   0.13519
 Alpha virt. eigenvalues --    0.15222   0.15562   0.16953   0.17586   0.19742

 Mulliken atomic charges:
              1
     1  H    0.130708
     2  C   -0.399990
     3  C   -0.333920
     4  H    0.097712
     5  H    0.144802
     6  H    0.115577
     7  Si   0.462802
     8  H    0.113788
     9  O   -0.355241
    10  O   -0.358617
    11  H   -0.093327
    12  H    0.332602
    13  C   -0.211210
    14  H    0.127752
    15  H    0.117580
    16  H    0.108982
 Sum of Mulliken atomic charges =   0.00000

 Dipole moment (field-independent basis, Debye):
    X=             -0.2597    Y=              0.0405    Z=             -1.5941  Tot=              1.6156
 Quadrupole moment (field-independent basis, Debye-Ang):
   XX=            -41.8438   YY=            -47.9829   ZZ=            -42.8439
   XY=             -1.4579   XZ=             -0.1450   YZ=             -1.8136

 Normal termination of Gaussian 09 at Fri Aug 10 01:33:09 2018.
