 Gaussian 09, Revision C.01,
 Gaussian 09:  EM64L-G09RevC.01 23-Sep-2011

 --------------------------------------
 #SP PBE1PBE/Def2TZVP geom=connectivity
 --------------------------------------

 99/5=1,9=1/99;
 -------------
 Structure: 43
 -------------
 Charge =  0 Multiplicity = 1

                         Standard orientation:
 ---------------------------------------------------------------------
 Center     Atomic      Atomic             Coordinates (Angstroms)
 Number     Number       Type             X           Y           Z
 ---------------------------------------------------------------------
      1          1           0       -3.225660   -1.240288   -0.328545
      2          6           0       -2.232224   -0.842335   -0.550731
      3          6           0       -1.618428   -0.151540    0.666290
      4          1           0       -2.348113   -0.151887   -1.391663
      5          1           0       -1.610373   -1.674685   -0.889412
      6          1           0       -2.256706    0.674504    0.998938
      7         14           0        0.091508    0.526787    0.386619
      8          1           0       -1.560854   -0.849703    1.508146
      9          8           0        0.137800    1.474092   -0.626842
     10          8           0        1.037692   -0.773168    0.050583
     11          1           0        0.630521    1.255538    1.563542
     12          1           0       -0.216908    1.226115   -1.481247
     13          6           0        2.430266   -0.698352   -0.146382
     14          1           0        2.813867   -1.711357   -0.280039
     15          1           0        2.933576   -0.247538    0.717450
     16          1           0        2.677920   -0.109756   -1.034814
 ---------------------------------------------------------------------

 SCF Done:  E(RPBE1PBE) =  -559.996382125     A.U. after   13 cycles

 The electronic state is 1-A.
 Alpha  occ. eigenvalues --  -66.21418 -19.21234 -19.18807 -10.26045 -10.21526
 Alpha  occ. eigenvalues --  -10.19760  -5.30378  -3.64080  -3.63651  -3.63488
 Alpha  occ. eigenvalues --   -1.10137  -1.02674  -0.77686  -0.69976  -0.63829
 Alpha  occ. eigenvalues --   -0.60879  -0.51466  -0.47095  -0.46567  -0.45988
 Alpha  occ. eigenvalues --   -0.43462  -0.42472  -0.40950  -0.39498  -0.36424
 Alpha  occ. eigenvalues --   -0.35690  -0.31205  -0.29745  -0.28579
 Alpha virt. eigenvalues --    0.01899   0.06149   0.06566   0.08440   0.09125
 Alpha virt. eigenvalues --    0.10512   0.11359   0.12028   0.12543   0.13520
 Alpha virt. eigenvalues --    0.15216   0.15557   0.16949   0.17582   0.19741

 Mulliken atomic charges:
              1
     1  H    0.130692
     2  C   -0.399940
     3  C   -0.333629
     4  H    0.097752
     5  H    0.144756
     6  H    0.115591
     7  Si   0.463561
     8  H    0.113765
     9  O   -0.356714
    10  O   -0.358407
    11  H   -0.093047
    12  H    0.332433
    13  C   -0.211220
    14  H    0.127767
    15  H    0.117587
    16  H    0.109055
 Sum of Mulliken atomic charges =   0.00000

 Dipole moment (field-independent basis, Debye):
    X=             -0.2565    Y=              0.0382    Z=             -1.5891  Tot=              1.6101
 Quadrupole moment (field-independent basis, Debye-Ang):
   XX=            -41.8402   YY=            -47.9892   ZZ=            -42.8427
   XY=             -1.4569   XZ=             -0.1460   YZ=             -1.8141

 Normal termination of Gaussian 09 at Fri Aug 10 01:40:27 2018.
