 Gaussian 09, Revision C.01,
 Gaussian 09:  EM64L-G09RevC.01 23-Sep-2011

 --------------------------------------
 #SP PBE1PBE/Def2TZVP geom=connectivity
 --------------------------------------

 99/5=1,9=1/99;
 -------------
 Structure: 40
 -------------
 Charge =  0 Multiplicity = 1

                         Standard orientation:
 ---------------------------------------------------------------------
 Center     Atomic      Atomic             Coordinates (Angstroms)
 Number     Number       Type             X           Y           Z
 ---------------------------------------------------------------------
      1          1           0       -3.225764   -1.240831   -0.324503
      2          6           0       -2.232321   -0.843751   -0.548215
      3          6           0       -1.618496   -0.148335    0.666157
      4          1           0       -2.348201   -0.156513   -1.391772
      5          1           0       -1.610493   -1.677402   -0.883725
      6          1           0       -2.256750    0.678987    0.995658
      7         14           0        0.091454    0.528878    0.383884
      8          1           0       -1.560930   -0.843285    1.510669
      9          8           0        0.138212    1.468295   -0.628528
     10          8           0        1.037604   -0.772371    0.052798
     11          1           0        0.630497    1.262099    1.558014
     12          1           0       -0.216511    1.217070   -1.481977
     13          6           0        2.430177   -0.698341   -0.144464
     14          1           0        2.813752   -1.711858   -0.274261
     15          1           0        2.933507   -0.244248    0.717637
     16          1           0        2.677837   -0.113144   -1.035137
 ---------------------------------------------------------------------

 SCF Done:  E(RPBE1PBE) =  -559.992392559     A.U. after   13 cycles

 The electronic state is 1-A.
 Alpha  occ. eigenvalues --  -66.21304 -19.21240 -19.18780 -10.26036 -10.21523
 Alpha  occ. eigenvalues --  -10.19737  -5.30317  -3.64032  -3.63581  -3.63418
 Alpha  occ. eigenvalues --   -1.10313  -1.02656  -0.77677  -0.69964  -0.63838
 Alpha  occ. eigenvalues --   -0.60972  -0.51471  -0.47143  -0.46578  -0.45982
 Alpha  occ. eigenvalues --   -0.43478  -0.42533  -0.41018  -0.39499  -0.36401
 Alpha  occ. eigenvalues --   -0.35683  -0.31185  -0.29728  -0.28552
 Alpha virt. eigenvalues --    0.01881   0.06156   0.06579   0.08447   0.09127
 Alpha virt. eigenvalues --    0.10517   0.11366   0.12038   0.12546   0.13518
 Alpha virt. eigenvalues --    0.15230   0.15572   0.16968   0.17597   0.19748

 Mulliken atomic charges:
              1
     1  H    0.130711
     2  C   -0.400107
     3  C   -0.334415
     4  H    0.097615
     5  H    0.144823
     6  H    0.115475
     7  Si   0.461672
     8  H    0.113712
     9  O   -0.352300
    10  O   -0.359025
    11  H   -0.093861
    12  H    0.332796
    13  C   -0.211249
    14  H    0.127748
    15  H    0.117598
    16  H    0.108806
 Sum of Mulliken atomic charges =   0.00000

 Dipole moment (field-independent basis, Debye):
    X=             -0.2572    Y=              0.0477    Z=             -1.6070  Tot=              1.6281
 Quadrupole moment (field-independent basis, Debye-Ang):
   XX=            -41.8537   YY=            -47.9663   ZZ=            -42.8408
   XY=             -1.4545   XZ=             -0.1465   YZ=             -1.8185

 Normal termination of Gaussian 09 at Fri Aug 10 01:18:44 2018.
