 Gaussian 09, Revision C.01,
 Gaussian 09:  EM64L-G09RevC.01 23-Sep-2011

 --------------------------------------
 #SP PBE1PBE/Def2TZVP geom=connectivity
 --------------------------------------

 99/5=1,9=1/99;
 -------------
 Structure: 54
 -------------
 Charge =  0 Multiplicity = 1

                         Standard orientation:
 ---------------------------------------------------------------------
 Center     Atomic      Atomic             Coordinates (Angstroms)
 Number     Number       Type             X           Y           Z
 ---------------------------------------------------------------------
      1          1           0       -3.226250   -1.237143   -0.343059
      2          6           0       -2.232633   -0.836652   -0.559811
      3          6           0       -1.618837   -0.162110    0.666294
      4          1           0       -2.348120   -0.135181   -1.391626
      5          1           0       -1.611003   -1.664699   -0.909273
      6          1           0       -2.256894    0.659717    1.009638
      7         14           0        0.091388    0.519236    0.395879
      8          1           0       -1.561668   -0.871288    1.498920
      9          8           0        0.139670    1.495238   -0.620146
     10          8           0        1.037189   -0.776523    0.042983
     11          1           0        0.630423    1.232282    1.582373
     12          1           0       -0.215030    1.258295   -1.478742
     13          6           0        2.429827   -0.699612   -0.152717
     14          1           0        2.813105   -1.710909   -0.299591
     15          1           0        2.933124   -0.260355    0.717056
     16          1           0        2.677858   -0.099487   -1.033296
 ---------------------------------------------------------------------

 SCF Done:  E(RPBE1PBE) =  -560.009141882     A.U. after   13 cycles

 The electronic state is 1-A.
 Alpha  occ. eigenvalues --  -66.21808 -19.21216 -19.18903 -10.26074 -10.21540
 Alpha  occ. eigenvalues --  -10.19854  -5.30595  -3.64258  -3.63897  -3.63734
 Alpha  occ. eigenvalues --   -1.09509  -1.02735  -0.77726  -0.70016  -0.63804
 Alpha  occ. eigenvalues --   -0.60519  -0.51450  -0.46950  -0.46533  -0.46011
 Alpha  occ. eigenvalues --   -0.43423  -0.42241  -0.40734  -0.39458  -0.36499
 Alpha  occ. eigenvalues --   -0.35721  -0.31273  -0.29805  -0.28678
 Alpha virt. eigenvalues --    0.01940   0.06124   0.06519   0.08410   0.09115
 Alpha virt. eigenvalues --    0.10492   0.11326   0.11996   0.12529   0.13526
 Alpha virt. eigenvalues --    0.15167   0.15509   0.16879   0.17507   0.19712

 Mulliken atomic charges:
              1
     1  H    0.130635
     2  C   -0.399320
     3  C   -0.330904
     4  H    0.098322
     5  H    0.144538
     6  H    0.116065
     7  Si   0.470234
     8  H    0.114093
     9  O   -0.372463
    10  O   -0.356331
    11  H   -0.090401
    12  H    0.331307
    13  C   -0.211057
    14  H    0.127829
    15  H    0.117553
    16  H    0.109900
 Sum of Mulliken atomic charges =   0.00000

 Dipole moment (field-independent basis, Debye):
    X=             -0.2594    Y=             -0.0002    Z=             -1.5285  Tot=              1.5504
 Quadrupole moment (field-independent basis, Debye-Ang):
   XX=            -41.7926   YY=            -48.0784   ZZ=            -42.8482
   XY=             -1.4718   XZ=             -0.1507   YZ=             -1.8039

 Normal termination of Gaussian 09 at Fri Aug 10 03:06:41 2018.
