 Gaussian 09, Revision C.01,
 Gaussian 09:  EM64L-G09RevC.01 23-Sep-2011

 --------------------------------------
 #SP PBE1PBE/Def2TZVP geom=connectivity
 --------------------------------------

 99/5=1,9=1/99;
 ------------
 Structure: 5
 ------------
 Charge =  0 Multiplicity = 1

                         Standard orientation:
 ---------------------------------------------------------------------
 Center     Atomic      Atomic             Coordinates (Angstroms)
 Number     Number       Type             X           Y           Z
 ---------------------------------------------------------------------
      1          1           0        3.224622   -1.248937    0.277316
      2          6           0        2.231591   -0.861124    0.518436
      3          6           0        1.617680   -0.113656   -0.664565
      4          1           0        2.348413   -0.210900    1.390717
      5          1           0        1.609304   -1.707983    0.818100
      6          1           0        2.256393    0.726610   -0.958507
      7         14           0       -0.091617    0.552037   -0.352503
      8          1           0        1.559167   -0.771585   -1.538163
      9          8           0       -0.134785    1.401529    0.646428
     10          8           0       -1.038580   -0.761560   -0.077204
     11          1           0       -0.630696    1.335489   -1.493712
     12          1           0        0.220178    1.113559    1.488089
     13          6           0       -2.430998   -0.695067    0.123805
     14          1           0       -2.815272   -1.712950    0.210081
     15          1           0       -2.934419   -0.203936   -0.717692
     16          1           0       -2.677770   -0.148551    1.038963
 ---------------------------------------------------------------------

 SCF Done:  E(RPBE1PBE) =  -559.933501727     A.U. after   12 cycles

 The electronic state is 1-A.
 Alpha  occ. eigenvalues --  -66.19934 -19.21225 -19.18481 -10.25949 -10.21487
 Alpha  occ. eigenvalues --  -10.19446  -5.29656  -3.63561  -3.62785  -3.62621
 Alpha  occ. eigenvalues --   -1.12268  -1.02450  -0.77560  -0.69842  -0.64080
 Alpha  occ. eigenvalues --   -0.61886  -0.51574  -0.47872  -0.46776  -0.45891
 Alpha  occ. eigenvalues --   -0.43813  -0.43047  -0.41722  -0.39387  -0.36146
 Alpha  occ. eigenvalues --   -0.35586  -0.30962  -0.29545  -0.28228
 Alpha virt. eigenvalues --    0.01684   0.06210   0.06716   0.08530   0.09142
 Alpha virt. eigenvalues --    0.10564   0.11458   0.12129   0.12580   0.13484
 Alpha virt. eigenvalues --    0.15312   0.15763   0.17191   0.17786   0.19827

 Mulliken atomic charges:
              1
     1  H    0.130932
     2  C   -0.402186
     3  C   -0.343583
     4  H    0.095946
     5  H    0.145566
     6  H    0.114030
     7  Si   0.443111
     8  H    0.112803
     9  O   -0.304195
    10  O   -0.366395
    11  H   -0.102842
    12  H    0.337270
    13  C   -0.211923
    14  H    0.127570
    15  H    0.117787
    16  H    0.106108
 Sum of Mulliken atomic charges =   0.00000

 Dipole moment (field-independent basis, Debye):
    X=              0.2521    Y=              0.1456    Z=              1.8097  Tot=              1.8329
 Quadrupole moment (field-independent basis, Debye-Ang):
   XX=            -41.9972   YY=            -47.7233   ZZ=            -42.8059
   XY=              1.4158   XZ=             -0.1384   YZ=              1.8655

 Normal termination of Gaussian 09 at Fri Aug 10 03:49:19 2018.
