 Gaussian 09, Revision C.01,
 Gaussian 09:  EM64L-G09RevC.01 23-Sep-2011

 --------------------------------------
 #SP PBE1PBE/Def2TZVP geom=connectivity
 --------------------------------------

 99/5=1,9=1/99;
 -------------
 Structure: 55
 -------------
 Charge =  0 Multiplicity = 1

                         Standard orientation:
 ---------------------------------------------------------------------
 Center     Atomic      Atomic             Coordinates (Angstroms)
 Number     Number       Type             X           Y           Z
 ---------------------------------------------------------------------
      1          1           0       -3.226363   -1.236738   -0.344199
      2          6           0       -2.232718   -0.836079   -0.560513
      3          6           0       -1.618912   -0.162842    0.666304
      4          1           0       -2.348146   -0.133741   -1.391603
      5          1           0       -1.611128   -1.663799   -0.910818
      6          1           0       -2.256931    0.658665    1.010484
      7         14           0        0.091358    0.518686    0.396634
      8          1           0       -1.561803   -0.872885    1.498197
      9          8           0        0.140145    1.496644   -0.619791
     10          8           0        1.037094   -0.776761    0.042419
     11          1           0        0.630406    1.230473    1.583879
     12          1           0       -0.215457    1.260244   -1.478442
     13          6           0        2.429741   -0.699727   -0.153169
     14          1           0        2.812964   -1.710892   -0.301082
     15          1           0        2.933043   -0.261399    0.717070
     16          1           0        2.677826   -0.098704   -1.033121
 ---------------------------------------------------------------------

 SCF Done:  E(RPBE1PBE) =  -560.010031946     A.U. after   13 cycles

 The electronic state is 1-A.
 Alpha  occ. eigenvalues --  -66.21838 -19.21215 -19.18908 -10.26075 -10.21543
 Alpha  occ. eigenvalues --  -10.19863  -5.30612  -3.64272  -3.63915  -3.63753
 Alpha  occ. eigenvalues --   -1.09459  -1.02738  -0.77731  -0.70017  -0.63803
 Alpha  occ. eigenvalues --   -0.60485  -0.51447  -0.46941  -0.46530  -0.46013
 Alpha  occ. eigenvalues --   -0.43421  -0.42222  -0.40722  -0.39452  -0.36505
 Alpha  occ. eigenvalues --   -0.35726  -0.31277  -0.29808  -0.28687
 Alpha virt. eigenvalues --    0.01940   0.06123   0.06515   0.08407   0.09114
 Alpha virt. eigenvalues --    0.10490   0.11322   0.11993   0.12528   0.13526
 Alpha virt. eigenvalues --    0.15163   0.15505   0.16871   0.17503   0.19709

 Mulliken atomic charges:
              1
     1  H    0.130640
     2  C   -0.399276
     3  C   -0.330723
     4  H    0.098358
     5  H    0.144543
     6  H    0.116114
     7  Si   0.470654
     8  H    0.114138
     9  O   -0.373675
    10  O   -0.356175
    11  H   -0.090174
    12  H    0.331269
    13  C   -0.211037
    14  H    0.127826
    15  H    0.117539
    16  H    0.109979
 Sum of Mulliken atomic charges =   0.00000

 Dipole moment (field-independent basis, Debye):
    X=             -0.2619    Y=             -0.0036    Z=             -1.5227  Tot=              1.5450
 Quadrupole moment (field-independent basis, Debye-Ang):
   XX=            -41.7881   YY=            -48.0859   ZZ=            -42.8500
   XY=             -1.4739   XZ=             -0.1488   YZ=             -1.8004

 Normal termination of Gaussian 09 at Fri Aug 10 03:13:56 2018.
