 Gaussian 09, Revision C.01,
 Gaussian 09:  EM64L-G09RevC.01 23-Sep-2011

 --------------------------------------
 #SP PBE1PBE/Def2TZVP geom=connectivity
 --------------------------------------

 99/5=1,9=1/99;
 -------------
 Structure: 52
 -------------
 Charge =  0 Multiplicity = 1

                         Standard orientation:
 ---------------------------------------------------------------------
 Center     Atomic      Atomic             Coordinates (Angstroms)
 Number     Number       Type             X           Y           Z
 ---------------------------------------------------------------------
      1          1           0       -3.226062   -1.237730   -0.340647
      2          6           0       -2.232494   -0.837601   -0.558291
      3          6           0       -1.618714   -0.160396    0.666353
      4          1           0       -2.348086   -0.137910   -1.391588
      5          1           0       -1.610796   -1.666326   -0.906020
      6          1           0       -2.256839    0.662095    1.007978
      7         14           0        0.091431    0.520545    0.394420
      8          1           0       -1.561439   -0.867798    1.500481
      9          8           0        0.139058    1.491384   -0.621514
     10          8           0        1.037348   -0.775865    0.044236
     11          1           0        0.630445    1.236164    1.579374
     12          1           0       -0.215582    1.252914   -1.478649
     13          6           0        2.429970   -0.699231   -0.151685
     14          1           0        2.813342   -1.710798   -0.296428
     15          1           0        2.933259   -0.258077    0.717132
     16          1           0        2.677904   -0.100952   -1.033548
 ---------------------------------------------------------------------

 SCF Done:  E(RPBE1PBE) =  -560.007130253     A.U. after   13 cycles

 The electronic state is 1-A.
 Alpha  occ. eigenvalues --  -66.21745 -19.21213 -19.18886 -10.26069 -10.21537
 Alpha  occ. eigenvalues --  -10.19837  -5.30560  -3.64228  -3.63856  -3.63694
 Alpha  occ. eigenvalues --   -1.09629  -1.02725  -0.77719  -0.70009  -0.63810
 Alpha  occ. eigenvalues --   -0.60597  -0.51452  -0.46973  -0.46539  -0.46007
 Alpha  occ. eigenvalues --   -0.43428  -0.42282  -0.40770  -0.39471  -0.36488
 Alpha  occ. eigenvalues --   -0.35716  -0.31262  -0.29793  -0.28662
 Alpha virt. eigenvalues --    0.01944   0.06128   0.06530   0.08415   0.09119
 Alpha virt. eigenvalues --    0.10496   0.11332   0.12001   0.12532   0.13527
 Alpha virt. eigenvalues --    0.15175   0.15517   0.16890   0.17525   0.19717

 Mulliken atomic charges:
              1
     1  H    0.130642
     2  C   -0.399418
     3  C   -0.331370
     4  H    0.098228
     5  H    0.144574
     6  H    0.115978
     7  Si   0.469110
     8  H    0.114027
     9  O   -0.369636
    10  O   -0.356673
    11  H   -0.090814
    12  H    0.331311
    13  C   -0.211091
    14  H    0.127817
    15  H    0.117551
    16  H    0.109763
 Sum of Mulliken atomic charges =   0.00000

 Dipole moment (field-independent basis, Debye):
    X=             -0.2586    Y=              0.0074    Z=             -1.5372  Tot=              1.5589
 Quadrupole moment (field-independent basis, Debye-Ang):
   XX=            -41.8001   YY=            -48.0600   ZZ=            -42.8493
   XY=             -1.4683   XZ=             -0.1492   YZ=             -1.8038

 Normal termination of Gaussian 09 at Fri Aug 10 02:52:29 2018.
