 Gaussian 09, Revision C.01,
 Gaussian 09:  EM64L-G09RevC.01 23-Sep-2011

 --------------------------------------
 #SP PBE1PBE/Def2TZVP geom=connectivity
 --------------------------------------

 99/5=1,9=1/99;
 -------------
 Structure: 57
 -------------
 Charge =  0 Multiplicity = 1

                         Standard orientation:
 ---------------------------------------------------------------------
 Center     Atomic      Atomic             Coordinates (Angstroms)
 Number     Number       Type             X           Y           Z
 ---------------------------------------------------------------------
      1          1           0       -3.226147   -1.236548   -0.347074
      2          6           0       -2.232537   -0.835213   -0.562295
      3          6           0       -1.618770   -0.165314    0.666366
      4          1           0       -2.348032   -0.130595   -1.391444
      5          1           0       -1.610884   -1.661914   -0.914890
      6          1           0       -2.256851    0.655189    1.012819
      7         14           0        0.091442    0.517094    0.398557
      8          1           0       -1.561592   -0.877644    1.496297
      9          8           0        0.139260    1.501056   -0.618330
     10          8           0        1.037278   -0.777294    0.040757
     11          1           0        0.630447    1.225647    1.587753
     12          1           0       -0.215426    1.267363   -1.477822
     13          6           0        2.429916   -0.699607   -0.154635
     14          1           0        2.813219   -1.710330   -0.305341
     15          1           0        2.933193   -0.263641    0.716803
     16          1           0        2.677941   -0.096140   -1.032929
 ---------------------------------------------------------------------

 SCF Done:  E(RPBE1PBE) =  -560.012419707     A.U. after   13 cycles

 The electronic state is 1-A.
 Alpha  occ. eigenvalues --  -66.21917 -19.21206 -19.18931 -10.26083 -10.21543
 Alpha  occ. eigenvalues --  -10.19877  -5.30658  -3.64310  -3.63966  -3.63804
 Alpha  occ. eigenvalues --   -1.09335  -1.02753  -0.77736  -0.70028  -0.63801
 Alpha  occ. eigenvalues --   -0.60421  -0.51446  -0.46915  -0.46526  -0.46015
 Alpha  occ. eigenvalues --   -0.43415  -0.42171  -0.40680  -0.39436  -0.36521
 Alpha  occ. eigenvalues --   -0.35728  -0.31293  -0.29821  -0.28705
 Alpha virt. eigenvalues --    0.01956   0.06115   0.06507   0.08402   0.09112
 Alpha virt. eigenvalues --    0.10486   0.11318   0.11985   0.12525   0.13528
 Alpha virt. eigenvalues --    0.15148   0.15496   0.16860   0.17490   0.19704

 Mulliken atomic charges:
              1
     1  H    0.130617
     2  C   -0.399156
     3  C   -0.330139
     4  H    0.098465
     5  H    0.144472
     6  H    0.116183
     7  Si   0.472224
     8  H    0.114150
     9  O   -0.376929
    10  O   -0.355744
    11  H   -0.089603
    12  H    0.330952
    13  C   -0.211039
    14  H    0.127849
    15  H    0.117545
    16  H    0.110152
 Sum of Mulliken atomic charges =   0.00000

 Dipole moment (field-independent basis, Debye):
    X=             -0.2588    Y=             -0.0108    Z=             -1.5108  Tot=              1.5328
 Quadrupole moment (field-independent basis, Debye-Ang):
   XX=            -41.7784   YY=            -48.1029   ZZ=            -42.8496
   XY=             -1.4744   XZ=             -0.1503   YZ=             -1.7999

 Normal termination of Gaussian 09 at Fri Aug 10 03:28:16 2018.
