 Gaussian 09, Revision C.01,
 Gaussian 09:  EM64L-G09RevC.01 23-Sep-2011

 --------------------------------------
 #SP PBE1PBE/Def2TZVP geom=connectivity
 --------------------------------------

 99/5=1,9=1/99;
 -------------
 Structure: 50
 -------------
 Charge =  0 Multiplicity = 1

                         Standard orientation:
 ---------------------------------------------------------------------
 Center     Atomic      Atomic             Coordinates (Angstroms)
 Number     Number       Type             X           Y           Z
 ---------------------------------------------------------------------
      1          1           0       -3.225903   -1.238458   -0.337824
      2          6           0       -2.232380   -0.838798   -0.556533
      3          6           0       -1.618600   -0.158425    0.666354
      4          1           0       -2.348072   -0.141240   -1.391603
      5          1           0       -1.610627   -1.668352   -0.902182
      6          1           0       -2.256780    0.664877    1.005915
      7         14           0        0.091474    0.521970    0.392606
      8          1           0       -1.561224   -0.863697    1.502277
      9          8           0        0.138526    1.487554   -0.622686
     10          8           0        1.037485   -0.775246    0.045678
     11          1           0        0.630482    1.240648    1.575710
     12          1           0       -0.216134    1.246873   -1.479194
     13          6           0        2.430091   -0.698990   -0.150504
     14          1           0        2.813545   -1.710890   -0.292690
     15          1           0        2.933384   -0.255583    0.717163
     16          1           0        2.677932   -0.102937   -1.033899
 ---------------------------------------------------------------------

 SCF Done:  E(RPBE1PBE) =  -560.004795201     A.U. after   13 cycles

 The electronic state is 1-A.
 Alpha  occ. eigenvalues --  -66.21671 -19.21219 -19.18869 -10.26064 -10.21534
 Alpha  occ. eigenvalues --  -10.19819  -5.30518  -3.64194  -3.63809  -3.63647
 Alpha  occ. eigenvalues --   -1.09746  -1.02715  -0.77711  -0.70002  -0.63813
 Alpha  occ. eigenvalues --   -0.60662  -0.51456  -0.46999  -0.46545  -0.46003
 Alpha  occ. eigenvalues --   -0.43435  -0.42327  -0.40809  -0.39480  -0.36473
 Alpha  occ. eigenvalues --   -0.35710  -0.31250  -0.29783  -0.28643
 Alpha virt. eigenvalues --    0.01933   0.06133   0.06538   0.08421   0.09120
 Alpha virt. eigenvalues --    0.10500   0.11338   0.12007   0.12534   0.13525
 Alpha virt. eigenvalues --    0.15185   0.15526   0.16905   0.17538   0.19723

 Mulliken atomic charges:
              1
     1  H    0.130652
     2  C   -0.399534
     3  C   -0.331887
     4  H    0.098114
     5  H    0.144612
     6  H    0.115889
     7  Si   0.467839
     8  H    0.113960
     9  O   -0.366670
    10  O   -0.357058
    11  H   -0.091331
    12  H    0.331560
    13  C   -0.211126
    14  H    0.127808
    15  H    0.117564
    16  H    0.109606
 Sum of Mulliken atomic charges =   0.00000

 Dipole moment (field-independent basis, Debye):
    X=             -0.2577    Y=              0.0143    Z=             -1.5493  Tot=              1.5706
 Quadrupole moment (field-independent basis, Debye-Ang):
   XX=            -41.8088   YY=            -48.0441   ZZ=            -42.8483
   XY=             -1.4656   XZ=             -0.1484   YZ=             -1.8063

 Normal termination of Gaussian 09 at Fri Aug 10 02:38:04 2018.
