 Gaussian 09, Revision C.01,
 Gaussian 09:  EM64L-G09RevC.01 23-Sep-2011

 --------------------------------------
 #SP PBE1PBE/Def2TZVP geom=connectivity
 --------------------------------------

 99/5=1,9=1/99;
 -------------
 Structure: 51
 -------------
 Charge =  0 Multiplicity = 1

                         Standard orientation:
 ---------------------------------------------------------------------
 Center     Atomic      Atomic             Coordinates (Angstroms)
 Number     Number       Type             X           Y           Z
 ---------------------------------------------------------------------
      1          1           0       -3.226041   -1.238017   -0.339039
      2          6           0       -2.232484   -0.838191   -0.557287
      3          6           0       -1.618699   -0.159169    0.666348
      4          1           0       -2.348100   -0.139731   -1.391614
      5          1           0       -1.610775   -1.667416   -0.903802
      6          1           0       -2.256836    0.663812    1.006768
      7         14           0        0.091429    0.521403    0.393388
      8          1           0       -1.561399   -0.865339    1.501518
      9          8           0        0.139008    1.488972   -0.622285
     10          8           0        1.037365   -0.775505    0.045103
     11          1           0        0.630445    1.238779    1.577278
     12          1           0       -0.215639    1.249232   -1.479063
     13          6           0        2.429983   -0.699133   -0.150950
     14          1           0        2.813373   -1.710906   -0.294206
     15          1           0        2.933276   -0.256689    0.717209
     16          1           0        2.677894   -0.102151   -1.033697
 ---------------------------------------------------------------------

 SCF Done:  E(RPBE1PBE) =  -560.005749387     A.U. after   13 cycles

 The electronic state is 1-A.
 Alpha  occ. eigenvalues --  -66.21701 -19.21217 -19.18874 -10.26065 -10.21536
 Alpha  occ. eigenvalues --  -10.19827  -5.30535  -3.64208  -3.63828  -3.63666
 Alpha  occ. eigenvalues --   -1.09698  -1.02718  -0.77715  -0.70004  -0.63812
 Alpha  occ. eigenvalues --   -0.60636  -0.51453  -0.46988  -0.46542  -0.46005
 Alpha  occ. eigenvalues --   -0.43432  -0.42309  -0.40793  -0.39477  -0.36479
 Alpha  occ. eigenvalues --   -0.35713  -0.31254  -0.29786  -0.28651
 Alpha virt. eigenvalues --    0.01938   0.06131   0.06535   0.08418   0.09119
 Alpha virt. eigenvalues --    0.10499   0.11336   0.12005   0.12533   0.13526
 Alpha virt. eigenvalues --    0.15181   0.15522   0.16898   0.17533   0.19720

 Mulliken atomic charges:
              1
     1  H    0.130649
     2  C   -0.399489
     3  C   -0.331671
     4  H    0.098165
     5  H    0.144600
     6  H    0.115925
     7  Si   0.468338
     8  H    0.113995
     9  O   -0.367879
    10  O   -0.356908
    11  H   -0.091111
    12  H    0.331465
    13  C   -0.211104
    14  H    0.127809
    15  H    0.117553
    16  H    0.109664
 Sum of Mulliken atomic charges =   0.00000

 Dipole moment (field-independent basis, Debye):
    X=             -0.2586    Y=              0.0118    Z=             -1.5442  Tot=              1.5657
 Quadrupole moment (field-independent basis, Debye-Ang):
   XX=            -41.8059   YY=            -48.0499   ZZ=            -42.8482
   XY=             -1.4668   XZ=             -0.1488   YZ=             -1.8051

 Normal termination of Gaussian 09 at Fri Aug 10 02:45:19 2018.
