 Gaussian 09, Revision C.01,
 Gaussian 09:  EM64L-G09RevC.01 23-Sep-2011

 --------------------------------------
 #SP PBE1PBE/Def2TZVP geom=connectivity
 --------------------------------------

 99/5=1,9=1/99;
 -------------
 Structure: 58
 -------------
 Charge =  0 Multiplicity = 1

                         Standard orientation:
 ---------------------------------------------------------------------
 Center     Atomic      Atomic             Coordinates (Angstroms)
 Number     Number       Type             X           Y           Z
 ---------------------------------------------------------------------
      1          1           0       -3.226287   -1.236112   -0.348275
      2          6           0       -2.232642   -0.834623   -0.563042
      3          6           0       -1.618873   -0.166042    0.666337
      4          1           0       -2.348057   -0.129135   -1.391462
      5          1           0       -1.611032   -1.660999   -0.916472
      6          1           0       -2.256910    0.654145    1.013618
      7         14           0        0.091395    0.516526    0.399299
      8          1           0       -1.561775   -0.879237    1.495530
      9          8           0        0.139745    1.502454   -0.617971
     10          8           0        1.037155   -0.777555    0.040190
     11          1           0        0.630405    1.223807    1.589250
     12          1           0       -0.214853    1.270004   -1.476776
     13          6           0        2.429806   -0.699761   -0.155070
     14          1           0        2.813045   -1.710353   -0.306812
     15          1           0        2.933081   -0.264735    0.716839
     16          1           0        2.677905   -0.095399   -1.032728
 ---------------------------------------------------------------------

 SCF Done:  E(RPBE1PBE) =  -560.013279633     A.U. after   13 cycles

 The electronic state is 1-A.
 Alpha  occ. eigenvalues --  -66.21948 -19.21196 -19.18937 -10.26085 -10.21544
 Alpha  occ. eigenvalues --  -10.19886  -5.30676  -3.64326  -3.63986  -3.63825
 Alpha  occ. eigenvalues --   -1.09308  -1.02758  -0.77740  -0.70031  -0.63804
 Alpha  occ. eigenvalues --   -0.60413  -0.51445  -0.46907  -0.46524  -0.46017
 Alpha  occ. eigenvalues --   -0.43414  -0.42154  -0.40670  -0.39431  -0.36528
 Alpha  occ. eigenvalues --   -0.35732  -0.31298  -0.29825  -0.28714
 Alpha virt. eigenvalues --    0.01971   0.06113   0.06507   0.08399   0.09115
 Alpha virt. eigenvalues --    0.10485   0.11314   0.11983   0.12524   0.13530
 Alpha virt. eigenvalues --    0.15144   0.15494   0.16853   0.17486   0.19701

 Mulliken atomic charges:
              1
     1  H    0.130612
     2  C   -0.399088
     3  C   -0.329958
     4  H    0.098536
     5  H    0.144458
     6  H    0.116225
     7  Si   0.472737
     8  H    0.114193
     9  O   -0.377891
    10  O   -0.355598
    11  H   -0.089413
    12  H    0.330605
    13  C   -0.211022
    14  H    0.127852
    15  H    0.117534
    16  H    0.110220
 Sum of Mulliken atomic charges =   0.00000

 Dipole moment (field-independent basis, Debye):
    X=             -0.2598    Y=             -0.0134    Z=             -1.5046  Tot=              1.5269
 Quadrupole moment (field-independent basis, Debye-Ang):
   XX=            -41.7737   YY=            -48.1068   ZZ=            -42.8533
   XY=             -1.4758   XZ=             -0.1513   YZ=             -1.7979

 Normal termination of Gaussian 09 at Fri Aug 10 03:35:26 2018.
