 Gaussian 09, Revision C.01,
 Gaussian 09:  EM64L-G09RevC.01 23-Sep-2011

 --------------------------------------
 #SP PBE1PBE/Def2TZVP geom=connectivity
 --------------------------------------

 99/5=1,9=1/99;
 -------------
 Structure: 53
 -------------
 Charge =  0 Multiplicity = 1

                         Standard orientation:
 ---------------------------------------------------------------------
 Center     Atomic      Atomic             Coordinates (Angstroms)
 Number     Number       Type             X           Y           Z
 ---------------------------------------------------------------------
      1          1           0       -3.226201   -1.237286   -0.341862
      2          6           0       -2.232598   -0.836991   -0.559044
      3          6           0       -1.618814   -0.161139    0.666345
      4          1           0       -2.348114   -0.136401   -1.391596
      5          1           0       -1.610945   -1.665386   -0.907639
      6          1           0       -2.256895    0.661028    1.008828
      7         14           0        0.091387    0.519976    0.395199
      8          1           0       -1.561615   -0.869438    1.499718
      9          8           0        0.139541    1.492803   -0.621107
     10          8           0        1.037227   -0.776123    0.043660
     11          1           0        0.630408    1.234289    1.580937
     12          1           0       -0.215086    1.255276   -1.478509
     13          6           0        2.429861   -0.699373   -0.152131
     14          1           0        2.813170   -1.710812   -0.297944
     15          1           0        2.933151   -0.259184    0.717175
     16          1           0        2.677866   -0.100168   -1.033344
 ---------------------------------------------------------------------

 SCF Done:  E(RPBE1PBE) =  -560.008056842     A.U. after   13 cycles

 The electronic state is 1-A.
 Alpha  occ. eigenvalues --  -66.21774 -19.21211 -19.18891 -10.26070 -10.21538
 Alpha  occ. eigenvalues --  -10.19846  -5.30576  -3.64242  -3.63875  -3.63713
 Alpha  occ. eigenvalues --   -1.09582  -1.02728  -0.77723  -0.70011  -0.63810
 Alpha  occ. eigenvalues --   -0.60571  -0.51450  -0.46963  -0.46536  -0.46008
 Alpha  occ. eigenvalues --   -0.43425  -0.42263  -0.40754  -0.39466  -0.36494
 Alpha  occ. eigenvalues --   -0.35719  -0.31266  -0.29797  -0.28670
 Alpha virt. eigenvalues --    0.01948   0.06126   0.06526   0.08412   0.09118
 Alpha virt. eigenvalues --    0.10495   0.11329   0.11999   0.12531   0.13527
 Alpha virt. eigenvalues --    0.15172   0.15513   0.16883   0.17520   0.19714

 Mulliken atomic charges:
              1
     1  H    0.130639
     2  C   -0.399373
     3  C   -0.331155
     4  H    0.098280
     5  H    0.144561
     6  H    0.116014
     7  Si   0.469613
     8  H    0.114062
     9  O   -0.370847
    10  O   -0.356524
    11  H   -0.090594
    12  H    0.331216
    13  C   -0.211069
    14  H    0.127817
    15  H    0.117539
    16  H    0.109822
 Sum of Mulliken atomic charges =   0.00000

 Dipole moment (field-independent basis, Debye):
    X=             -0.2595    Y=              0.0048    Z=             -1.5322  Tot=              1.5540
 Quadrupole moment (field-independent basis, Debye-Ang):
   XX=            -41.7972   YY=            -48.0658   ZZ=            -42.8492
   XY=             -1.4695   XZ=             -0.1497   YZ=             -1.8026

 Normal termination of Gaussian 09 at Fri Aug 10 02:59:33 2018.
