 Gaussian 09, Revision C.01,
 Gaussian 09:  EM64L-G09RevC.01 23-Sep-2011

 --------------------------------------
 #SP PBE1PBE/Def2TZVP geom=connectivity
 --------------------------------------

 99/5=1,9=1/99;
 -------------
 Structure: 56
 -------------
 Charge =  0 Multiplicity = 1

                         Standard orientation:
 ---------------------------------------------------------------------
 Center     Atomic      Atomic             Coordinates (Angstroms)
 Number     Number       Type             X           Y           Z
 ---------------------------------------------------------------------
      1          1           0       -3.226125   -1.236842   -0.345473
      2          6           0       -2.232527   -0.835805   -0.561297
      3          6           0       -1.618755   -0.164089    0.666370
      4          1           0       -2.348046   -0.132408   -1.391479
      5          1           0       -1.610862   -1.663011   -0.912685
      6          1           0       -2.256847    0.656910    1.011625
      7         14           0        0.091440    0.517958    0.397534
      8          1           0       -1.561553   -0.875197    1.497346
      9          8           0        0.139209    1.498644   -0.619116
     10          8           0        1.037296   -0.776937    0.041624
     11          1           0        0.630448    1.228268    1.585680
     12          1           0       -0.215484    1.263681   -1.478259
     13          6           0        2.429929   -0.699511   -0.153901
     14          1           0        2.813250   -1.710447   -0.303126
     15          1           0        2.933211   -0.262255    0.716889
     16          1           0        2.677932   -0.097331   -1.033084
 ---------------------------------------------------------------------

 SCF Done:  E(RPBE1PBE) =  -560.011133159     A.U. after   13 cycles

 The electronic state is 1-A.
 Alpha  occ. eigenvalues --  -66.21874 -19.21209 -19.18920 -10.26080 -10.21541
 Alpha  occ. eigenvalues --  -10.19867  -5.30633  -3.64289  -3.63939  -3.63776
 Alpha  occ. eigenvalues --   -1.09404  -1.02746  -0.77731  -0.70023  -0.63802
 Alpha  occ. eigenvalues --   -0.60461  -0.51447  -0.46928  -0.46529  -0.46013
 Alpha  occ. eigenvalues --   -0.43418  -0.42198  -0.40701  -0.39446  -0.36513
 Alpha  occ. eigenvalues --   -0.35725  -0.31285  -0.29814  -0.28694
 Alpha virt. eigenvalues --    0.01950   0.06119   0.06512   0.08405   0.09113
 Alpha virt. eigenvalues --    0.10489   0.11321   0.11989   0.12527   0.13527
 Alpha virt. eigenvalues --    0.15155   0.15501   0.16867   0.17499   0.19707

 Mulliken atomic charges:
              1
     1  H    0.130624
     2  C   -0.399227
     3  C   -0.330437
     4  H    0.098401
     5  H    0.144498
     6  H    0.116130
     7  Si   0.471441
     8  H    0.114117
     9  O   -0.375168
    10  O   -0.355975
    11  H   -0.089898
    12  H    0.331105
    13  C   -0.211050
    14  H    0.127841
    15  H    0.117546
    16  H    0.110052
 Sum of Mulliken atomic charges =   0.00000

 Dipole moment (field-independent basis, Debye):
    X=             -0.2587    Y=             -0.0063    Z=             -1.5177  Tot=              1.5396
 Quadrupole moment (field-independent basis, Debye-Ang):
   XX=            -41.7843   YY=            -48.0926   ZZ=            -42.8486
   XY=             -1.4728   XZ=             -0.1499   YZ=             -1.8010

 Normal termination of Gaussian 09 at Fri Aug 10 03:21:05 2018.
