 Gaussian 09, Revision C.01,
 Gaussian 09:  EM64L-G09RevC.01 23-Sep-2011

 --------------------------------------
 #SP PBE1PBE/Def2TZVP geom=connectivity
 --------------------------------------

 99/5=1,9=1/99;
 -------------
 Structure: 59
 -------------
 Charge =  0 Multiplicity = 1

                         Standard orientation:
 ---------------------------------------------------------------------
 Center     Atomic      Atomic             Coordinates (Angstroms)
 Number     Number       Type             X           Y           Z
 ---------------------------------------------------------------------
      1          1           0       -3.226308   -1.235814   -0.349873
      2          6           0       -2.232653   -0.834029   -0.564037
      3          6           0       -1.618888   -0.167266    0.666330
      4          1           0       -2.348043   -0.127324   -1.391423
      5          1           0       -1.611054   -1.659898   -0.918672
      6          1           0       -2.256914    0.652423    1.014806
      7         14           0        0.091397    0.515660    0.400318
      8          1           0       -1.561815   -0.881679    1.494476
      9          8           0        0.139796    1.504867   -0.617178
     10          8           0        1.037137   -0.777910    0.039323
     11          1           0        0.630405    1.221183    1.591314
     12          1           0       -0.214794    1.273685   -1.476328
     13          6           0        2.429792   -0.699857   -0.155804
     14          1           0        2.813014   -1.710232   -0.309024
     15          1           0        2.933064   -0.266121    0.716750
     16          1           0        2.677915   -0.094212   -1.032570
 ---------------------------------------------------------------------

 SCF Done:  E(RPBE1PBE) =  -560.014528001     A.U. after   13 cycles

 The electronic state is 1-A.
 Alpha  occ. eigenvalues --  -66.21991 -19.21193 -19.18948 -10.26089 -10.21546
 Alpha  occ. eigenvalues --  -10.19896  -5.30701  -3.64347  -3.64014  -3.63852
 Alpha  occ. eigenvalues --   -1.09239  -1.02765  -0.77745  -0.70036  -0.63803
 Alpha  occ. eigenvalues --   -0.60373  -0.51444  -0.46894  -0.46521  -0.46019
 Alpha  occ. eigenvalues --   -0.43412  -0.42127  -0.40651  -0.39419  -0.36536
 Alpha  occ. eigenvalues --   -0.35735  -0.31306  -0.29832  -0.28725
 Alpha virt. eigenvalues --    0.01977   0.06110   0.06502   0.08395   0.09114
 Alpha virt. eigenvalues --    0.10483   0.11311   0.11979   0.12522   0.13531
 Alpha virt. eigenvalues --    0.15137   0.15490   0.16846   0.17478   0.19698

 Mulliken atomic charges:
              1
     1  H    0.130605
     2  C   -0.399018
     3  C   -0.329660
     4  H    0.098600
     5  H    0.144432
     6  H    0.116278
     7  Si   0.473524
     8  H    0.114226
     9  O   -0.379654
    10  O   -0.355369
    11  H   -0.089118
    12  H    0.330452
    13  C   -0.211012
    14  H    0.127860
    15  H    0.117533
    16  H    0.110319
 Sum of Mulliken atomic charges =   0.00000

 Dipole moment (field-independent basis, Debye):
    X=             -0.2598    Y=             -0.0180    Z=             -1.4977  Tot=              1.5202
 Quadrupole moment (field-independent basis, Debye-Ang):
   XX=            -41.7678   YY=            -48.1171   ZZ=            -42.8543
   XY=             -1.4774   XZ=             -0.1517   YZ=             -1.7967

 Normal termination of Gaussian 09 at Fri Aug 10 03:42:43 2018.
