 Gaussian 09, Revision C.01,
 Gaussian 09:  EM64L-G09RevC.01 23-Sep-2011

 --------------------------------------
 #SP PBE1PBE/Def2TZVP geom=connectivity
 --------------------------------------

 99/5=1,9=1/99;
 -------------
 Structure: 65
 -------------
 Charge =  0 Multiplicity = 1

                         Standard orientation:
 ---------------------------------------------------------------------
 Center     Atomic      Atomic             Coordinates (Angstroms)
 Number     Number       Type             X           Y           Z
 ---------------------------------------------------------------------
      1          1           0       -3.226535   -1.234128   -0.357478
      2          6           0       -2.232801   -0.831009   -0.568755
      3          6           0       -1.619046   -0.172915    0.666276
      4          1           0       -2.348016   -0.118546   -1.391212
      5          1           0       -1.611293   -1.654482   -0.929075
      6          1           0       -2.256982    0.644422    1.020394
      7         14           0        0.091363    0.511594    0.405170
      8          1           0       -1.562150   -0.893083    1.489435
      9          8           0        0.140489    1.515971   -0.613463
     10          8           0        1.036944   -0.779573    0.035262
     11          1           0        0.630370    1.208731    1.601094
     12          1           0       -0.214133    1.290509   -1.475177
     13          6           0        2.429627   -0.700369   -0.159196
     14          1           0        2.812714   -1.709710   -0.319411
     15          1           0        2.932887   -0.272790    0.716398
     16          1           0        2.677916   -0.088673   -1.031705
 ---------------------------------------------------------------------

 SCF Done:  E(RPBE1PBE) =  -560.020081442     A.U. after   13 cycles

 The electronic state is 1-A.
 Alpha  occ. eigenvalues --  -66.22189 -19.21177 -19.18999 -10.26104 -10.21553
 Alpha  occ. eigenvalues --  -10.19944  -5.30817  -3.64446  -3.64143  -3.63981
 Alpha  occ. eigenvalues --   -1.08900  -1.02795  -0.77765  -0.70057  -0.63797
 Alpha  occ. eigenvalues --   -0.60167  -0.51438  -0.46839  -0.46509  -0.46027
 Alpha  occ. eigenvalues --   -0.43401  -0.41990  -0.40570  -0.39351  -0.36576
 Alpha  occ. eigenvalues --   -0.35750  -0.31341  -0.29863  -0.28776
 Alpha virt. eigenvalues --    0.01992   0.06094   0.06475   0.08379   0.09106
 Alpha virt. eigenvalues --    0.10471   0.11293   0.11960   0.12515   0.13532
 Alpha virt. eigenvalues --    0.15102   0.15468   0.16808   0.17437   0.19681

 Mulliken atomic charges:
              1
     1  H    0.130578
     2  C   -0.398715
     3  C   -0.328239
     4  H    0.098895
     5  H    0.144320
     6  H    0.116521
     7  Si   0.477208
     8  H    0.114387
     9  O   -0.388169
    10  O   -0.354324
    11  H   -0.087704
    12  H    0.330007
    13  C   -0.210947
    14  H    0.127894
    15  H    0.117518
    16  H    0.110769
 Sum of Mulliken atomic charges =   0.00000

 Dipole moment (field-independent basis, Debye):
    X=             -0.2609    Y=             -0.0398    Z=             -1.4663  Tot=              1.4899
 Quadrupole moment (field-independent basis, Debye-Ang):
   XX=            -41.7427   YY=            -48.1674   ZZ=            -42.8541
   XY=             -1.4848   XZ=             -0.1534   YZ=             -1.7920

 Normal termination of Gaussian 09 at Fri Aug 10 04:32:31 2018.
