 Gaussian 09, Revision C.01,
 Gaussian 09:  EM64L-G09RevC.01 23-Sep-2011

 --------------------------------------
 #SP PBE1PBE/Def2TZVP geom=connectivity
 --------------------------------------

 99/5=1,9=1/99;
 -------------
 Structure: 69
 -------------
 Charge =  0 Multiplicity = 1

                         Standard orientation:
 ---------------------------------------------------------------------
 Center     Atomic      Atomic             Coordinates (Angstroms)
 Number     Number       Type             X           Y           Z
 ---------------------------------------------------------------------
      1          1           0       -3.226834   -1.232635   -0.362984
      2          6           0       -2.233014   -0.828634   -0.572161
      3          6           0       -1.619257   -0.176813    0.666191
      4          1           0       -2.348037   -0.112057   -1.391063
      5          1           0       -1.611613   -1.650404   -0.936530
      6          1           0       -2.257087    0.638855    1.024326
      7         14           0        0.091290    0.508702    0.408652
      8          1           0       -1.562554   -0.901088    1.485752
      9          8           0        0.141562    1.523619   -0.611052
     10          8           0        1.036687   -0.780763    0.032390
     11          1           0        0.630309    1.199773    1.608086
     12          1           0       -0.213858    1.302461   -1.472773
     13          6           0        2.429400   -0.700824   -0.161550
     14          1           0        2.812331   -1.709418   -0.326765
     15          1           0        2.932655   -0.277704    0.716210
     16          1           0        2.677868   -0.084825   -1.030975
 ---------------------------------------------------------------------

 SCF Done:  E(RPBE1PBE) =  -560.023768057     A.U. after   13 cycles

 The electronic state is 1-A.
 Alpha  occ. eigenvalues --  -66.22330 -19.21155 -19.19034 -10.26115 -10.21561
 Alpha  occ. eigenvalues --  -10.19983  -5.30902  -3.64521  -3.64236  -3.64076
 Alpha  occ. eigenvalues --   -1.08688  -1.02816  -0.77784  -0.70072  -0.63801
 Alpha  occ. eigenvalues --   -0.60041  -0.51433  -0.46806  -0.46501  -0.46034
 Alpha  occ. eigenvalues --   -0.43398  -0.41894  -0.40532  -0.39288  -0.36606
 Alpha  occ. eigenvalues --   -0.35764  -0.31366  -0.29885  -0.28816
 Alpha virt. eigenvalues --    0.02018   0.06082   0.06461   0.08365   0.09105
 Alpha virt. eigenvalues --    0.10463   0.11278   0.11946   0.12509   0.13534
 Alpha virt. eigenvalues --    0.15075   0.15456   0.16779   0.17410   0.19669

 Mulliken atomic charges:
              1
     1  H    0.130565
     2  C   -0.398465
     3  C   -0.327305
     4  H    0.099136
     5  H    0.144260
     6  H    0.116719
     7  Si   0.479764
     8  H    0.114543
     9  O   -0.393865
    10  O   -0.353593
    11  H   -0.086714
    12  H    0.329328
    13  C   -0.210898
    14  H    0.127912
    15  H    0.117494
    16  H    0.111119
 Sum of Mulliken atomic charges =   0.00000

 Dipole moment (field-independent basis, Debye):
    X=             -0.2645    Y=             -0.0559    Z=             -1.4407  Tot=              1.4659
 Quadrupole moment (field-independent basis, Debye-Ang):
   XX=            -41.7212   YY=            -48.2009   ZZ=            -42.8611
   XY=             -1.4918   XZ=             -0.1535   YZ=             -1.7846

 Normal termination of Gaussian 09 at Fri Aug 10 05:01:05 2018.
