 Gaussian 09, Revision C.01,
 Gaussian 09:  EM64L-G09RevC.01 23-Sep-2011

 --------------------------------------
 #SP PBE1PBE/Def2TZVP geom=connectivity
 --------------------------------------

 99/5=1,9=1/99;
 -------------
 Structure: 67
 -------------
 Charge =  0 Multiplicity = 1

                         Standard orientation:
 ---------------------------------------------------------------------
 Center     Atomic      Atomic             Coordinates (Angstroms)
 Number     Number       Type             X           Y           Z
 ---------------------------------------------------------------------
      1          1           0       -3.226697   -1.233355   -0.360278
      2          6           0       -2.232917   -0.829791   -0.570487
      3          6           0       -1.619162   -0.174878    0.666234
      4          1           0       -2.348029   -0.115240   -1.391145
      5          1           0       -1.611466   -1.652406   -0.932859
      6          1           0       -2.257042    0.641618    1.022387
      7         14           0        0.091320    0.510135    0.406942
      8          1           0       -1.562370   -0.897131    1.487571
      9          8           0        0.141029    1.519813   -0.612202
     10          8           0        1.036804   -0.780176    0.033814
     11          1           0        0.630333    1.204197    1.604650
     12          1           0       -0.213571    1.296563   -1.474500
     13          6           0        2.429503   -0.700606   -0.160377
     14          1           0        2.812507   -1.709573   -0.323126
     15          1           0        2.932759   -0.275288    0.716320
     16          1           0        2.677889   -0.086727   -1.031324
 ---------------------------------------------------------------------

 SCF Done:  E(RPBE1PBE) =  -560.021960410     A.U. after   13 cycles

 The electronic state is 1-A.
 Alpha  occ. eigenvalues --  -66.22259 -19.21168 -19.19016 -10.26109 -10.21556
 Alpha  occ. eigenvalues --  -10.19963  -5.30859  -3.64483  -3.64189  -3.64028
 Alpha  occ. eigenvalues --   -1.08786  -1.02805  -0.77773  -0.70064  -0.63798
 Alpha  occ. eigenvalues --   -0.60099  -0.51435  -0.46821  -0.46504  -0.46029
 Alpha  occ. eigenvalues --   -0.43398  -0.41940  -0.40547  -0.39321  -0.36590
 Alpha  occ. eigenvalues --   -0.35757  -0.31353  -0.29874  -0.28795
 Alpha virt. eigenvalues --    0.02002   0.06088   0.06467   0.08372   0.09104
 Alpha virt. eigenvalues --    0.10468   0.11286   0.11953   0.12512   0.13533
 Alpha virt. eigenvalues --    0.15089   0.15462   0.16794   0.17423   0.19675

 Mulliken atomic charges:
              1
     1  H    0.130569
     2  C   -0.398601
     3  C   -0.327739
     4  H    0.099014
     5  H    0.144282
     6  H    0.116610
     7  Si   0.478526
     8  H    0.114456
     9  O   -0.391144
    10  O   -0.353961
    11  H   -0.087199
    12  H    0.329764
    13  C   -0.210919
    14  H    0.127904
    15  H    0.117507
    16  H    0.110929
 Sum of Mulliken atomic charges =   0.00000

 Dipole moment (field-independent basis, Debye):
    X=             -0.2619    Y=             -0.0474    Z=             -1.4545  Tot=              1.4786
 Quadrupole moment (field-independent basis, Debye-Ang):
   XX=            -41.7336   YY=            -48.1843   ZZ=            -42.8548
   XY=             -1.4877   XZ=             -0.1543   YZ=             -1.7899

 Normal termination of Gaussian 09 at Fri Aug 10 04:46:47 2018.
