 Gaussian 09, Revision C.01,
 Gaussian 09:  EM64L-G09RevC.01 23-Sep-2011

 --------------------------------------
 #SP PBE1PBE/Def2TZVP geom=connectivity
 --------------------------------------

 99/5=1,9=1/99;
 -------------
 Structure: 60
 -------------
 Charge =  0 Multiplicity = 1

                         Standard orientation:
 ---------------------------------------------------------------------
 Center     Atomic      Atomic             Coordinates (Angstroms)
 Number     Number       Type             X           Y           Z
 ---------------------------------------------------------------------
      1          1           0       -3.226448   -1.235359   -0.351087
      2          6           0       -2.232757   -0.833414   -0.564787
      3          6           0       -1.618988   -0.168009    0.666314
      4          1           0       -2.348071   -0.125816   -1.391420
      5          1           0       -1.611203   -1.658946   -0.920283
      6          1           0       -2.256970    0.651350    1.015645
      7         14           0        0.091353    0.515083    0.401091
      8          1           0       -1.561993   -0.883312    1.493697
      9          8           0        0.140281    1.506291   -0.616751
     10          8           0        1.037016   -0.778165    0.038744
     11          1           0        0.630368    1.219294    1.592859
     12          1           0       -0.214296    1.276052   -1.476160
     13          6           0        2.429683   -0.700000   -0.156251
     14          1           0        2.812840   -1.710237   -0.310539
     15          1           0        2.932955   -0.267232    0.716783
     16          1           0        2.677878   -0.093434   -1.032361
 ---------------------------------------------------------------------

 SCF Done:  E(RPBE1PBE) =  -560.015365331     A.U. after   13 cycles

 The electronic state is 1-A.
 Alpha  occ. eigenvalues --  -66.22020 -19.21189 -19.18954 -10.26090 -10.21547
 Alpha  occ. eigenvalues --  -10.19905  -5.30718  -3.64362  -3.64033  -3.63871
 Alpha  occ. eigenvalues --   -1.09192  -1.02768  -0.77748  -0.70038  -0.63803
 Alpha  occ. eigenvalues --   -0.60346  -0.51442  -0.46886  -0.46519  -0.46020
 Alpha  occ. eigenvalues --   -0.43409  -0.42107  -0.40639  -0.39411  -0.36543
 Alpha  occ. eigenvalues --   -0.35738  -0.31310  -0.29835  -0.28733
 Alpha virt. eigenvalues --    0.01981   0.06108   0.06498   0.08392   0.09113
 Alpha virt. eigenvalues --    0.10482   0.11308   0.11976   0.12522   0.13531
 Alpha virt. eigenvalues --    0.15133   0.15486   0.16839   0.17473   0.19695

 Mulliken atomic charges:
              1
     1  H    0.130602
     2  C   -0.398973
     3  C   -0.329450
     4  H    0.098652
     5  H    0.144419
     6  H    0.116314
     7  Si   0.474038
     8  H    0.114261
     9  O   -0.380868
    10  O   -0.355225
    11  H   -0.088901
    12  H    0.330359
    13  C   -0.210991
    14  H    0.127861
    15  H    0.117522
    16  H    0.110378
 Sum of Mulliken atomic charges =   0.00000

 Dipole moment (field-independent basis, Debye):
    X=             -0.2607    Y=             -0.0207    Z=             -1.4926  Tot=              1.5154
 Quadrupole moment (field-independent basis, Debye-Ang):
   XX=            -41.7648   YY=            -48.1232   ZZ=            -42.8542
   XY=             -1.4786   XZ=             -0.1522   YZ=             -1.7955

 Normal termination of Gaussian 09 at Fri Aug 10 03:56:26 2018.
