 Gaussian 09, Revision C.01,
 Gaussian 09:  EM64L-G09RevC.01 23-Sep-2011

 --------------------------------------
 #SP PBE1PBE/Def2TZVP geom=connectivity
 --------------------------------------

 99/5=1,9=1/99;
 -------------
 Structure: 64
 -------------
 Charge =  0 Multiplicity = 1

                         Standard orientation:
 ---------------------------------------------------------------------
 Center     Atomic      Atomic             Coordinates (Angstroms)
 Number     Number       Type             X           Y           Z
 ---------------------------------------------------------------------
      1          1           0       -3.226395   -1.234590   -0.356266
      2          6           0       -2.232697   -0.831628   -0.568008
      3          6           0       -1.618945   -0.172172    0.666298
      4          1           0       -2.347989   -0.120052   -1.391222
      5          1           0       -1.611143   -1.655442   -0.927469
      6          1           0       -2.256926    0.645499    1.019564
      7         14           0        0.091407    0.512176    0.404403
      8          1           0       -1.561971   -0.891456    1.490224
      9          8           0        0.140002    1.514544   -0.613903
     10          8           0        1.037066   -0.779319    0.035843
     11          1           0        0.630407    1.210628    1.599563
     12          1           0       -0.214633    1.288137   -1.475363
     13          6           0        2.429737   -0.700226   -0.158748
     14          1           0        2.812888   -1.709711   -0.317897
     15          1           0        2.932996   -0.271677    0.716372
     16          1           0        2.677953   -0.089446   -1.031918
 ---------------------------------------------------------------------

 SCF Done:  E(RPBE1PBE) =  -560.019303363     A.U. after   13 cycles

 The electronic state is 1-A.
 Alpha  occ. eigenvalues --  -66.22160 -19.21181 -19.18994 -10.26103 -10.21552
 Alpha  occ. eigenvalues --  -10.19936  -5.30800  -3.64432  -3.64124  -3.63962
 Alpha  occ. eigenvalues --   -1.08947  -1.02793  -0.77762  -0.70055  -0.63797
 Alpha  occ. eigenvalues --   -0.60194  -0.51440  -0.46846  -0.46511  -0.46026
 Alpha  occ. eigenvalues --   -0.43403  -0.42010  -0.40580  -0.39362  -0.36569
 Alpha  occ. eigenvalues --   -0.35748  -0.31337  -0.29860  -0.28768
 Alpha virt. eigenvalues --    0.01988   0.06096   0.06479   0.08382   0.09107
 Alpha virt. eigenvalues --    0.10472   0.11296   0.11963   0.12515   0.13532
 Alpha virt. eigenvalues --    0.15106   0.15471   0.16815   0.17442   0.19684

 Mulliken atomic charges:
              1
     1  H    0.130581
     2  C   -0.398759
     3  C   -0.328447
     4  H    0.098842
     5  H    0.144332
     6  H    0.116485
     7  Si   0.476689
     8  H    0.114352
     9  O   -0.386955
    10  O   -0.354466
    11  H   -0.087920
    12  H    0.330100
    13  C   -0.210967
    14  H    0.127894
    15  H    0.117529
    16  H    0.110710
 Sum of Mulliken atomic charges =   0.00000

 Dipole moment (field-independent basis, Debye):
    X=             -0.2600    Y=             -0.0370    Z=             -1.4714  Tot=              1.4946
 Quadrupole moment (field-independent basis, Debye-Ang):
   XX=            -41.7457   YY=            -48.1613   ZZ=            -42.8543
   XY=             -1.4835   XZ=             -0.1529   YZ=             -1.7931

 Normal termination of Gaussian 09 at Fri Aug 10 04:25:19 2018.
