 Gaussian 09, Revision C.01,
 Gaussian 09:  EM64L-G09RevC.01 23-Sep-2011

 --------------------------------------
 #SP PBE1PBE/Def2TZVP geom=connectivity
 --------------------------------------

 99/5=1,9=1/99;
 -------------
 Structure: 62
 -------------
 Charge =  0 Multiplicity = 1

                         Standard orientation:
 ---------------------------------------------------------------------
 Center     Atomic      Atomic             Coordinates (Angstroms)
 Number     Number       Type             X           Y           Z
 ---------------------------------------------------------------------
      1          1           0       -3.226583   -1.234642   -0.353821
      2          6           0       -2.232853   -0.832241   -0.566479
      3          6           0       -1.619079   -0.169965    0.666305
      4          1           0       -2.348082   -0.122568   -1.391344
      5          1           0       -1.611350   -1.656929   -0.924016
      6          1           0       -2.257010    0.648567    1.017661
      7         14           0        0.091324    0.513657    0.402855
      8          1           0       -1.562170   -0.887339    1.491899
      9          8           0        0.140810    1.510118   -0.615575
     10          8           0        1.036901   -0.778755    0.037309
     11          1           0        0.630350    1.214842    1.596401
     12          1           0       -0.214661    1.281689   -1.475376
     13          6           0        2.429581   -0.700209   -0.157439
     14          1           0        2.812667   -1.710087   -0.314239
     15          1           0        2.932854   -0.269665    0.716694
     16          1           0        2.677856   -0.091473   -1.032019
 ---------------------------------------------------------------------

 SCF Done:  E(RPBE1PBE) =  -560.017377224     A.U. after   13 cycles

 The electronic state is 1-A.
 Alpha  occ. eigenvalues --  -66.22091 -19.21183 -19.18970 -10.26094 -10.21552
 Alpha  occ. eigenvalues --  -10.19924  -5.30760  -3.64397  -3.64079  -3.63918
 Alpha  occ. eigenvalues --   -1.09074  -1.02778  -0.77758  -0.70045  -0.63802
 Alpha  occ. eigenvalues --   -0.60271  -0.51439  -0.46866  -0.46514  -0.46025
 Alpha  occ. eigenvalues --   -0.43406  -0.42059  -0.40612  -0.39387  -0.36558
 Alpha  occ. eigenvalues --   -0.35746  -0.31322  -0.29846  -0.28753
 Alpha virt. eigenvalues --    0.01987   0.06102   0.06489   0.08386   0.09111
 Alpha virt. eigenvalues --    0.10478   0.11300   0.11969   0.12519   0.13531
 Alpha virt. eigenvalues --    0.15121   0.15479   0.16824   0.17460   0.19689

 Mulliken atomic charges:
              1
     1  H    0.130600
     2  C   -0.398858
     3  C   -0.328977
     4  H    0.098754
     5  H    0.144399
     6  H    0.116416
     7  Si   0.475261
     8  H    0.114340
     9  O   -0.383845
    10  O   -0.354846
    11  H   -0.088385
    12  H    0.330171
    13  C   -0.210962
    14  H    0.127867
    15  H    0.117507
    16  H    0.110558
 Sum of Mulliken atomic charges =   0.00000

 Dipole moment (field-independent basis, Debye):
    X=             -0.2632    Y=             -0.0289    Z=             -1.4799  Tot=              1.5034
 Quadrupole moment (field-independent basis, Debye-Ang):
   XX=            -41.7544   YY=            -48.1413   ZZ=            -42.8569
   XY=             -1.4824   XZ=             -0.1509   YZ=             -1.7911

 Normal termination of Gaussian 09 at Fri Aug 10 04:11:01 2018.
