 Gaussian 09, Revision C.01,
 Gaussian 09:  EM64L-G09RevC.01 23-Sep-2011

 --------------------------------------
 #SP PBE1PBE/Def2TZVP geom=connectivity
 --------------------------------------

 99/5=1,9=1/99;
 -------------
 Structure: 63
 -------------
 Charge =  0 Multiplicity = 1

                         Standard orientation:
 ---------------------------------------------------------------------
 Center     Atomic      Atomic             Coordinates (Angstroms)
 Number     Number       Type             X           Y           Z
 ---------------------------------------------------------------------
      1          1           0       -3.226345   -1.234741   -0.355091
      2          6           0       -2.232661   -0.831966   -0.567257
      3          6           0       -1.618922   -0.171212    0.666361
      4          1           0       -2.347983   -0.121247   -1.391207
      5          1           0       -1.611084   -1.656131   -0.925870
      6          1           0       -2.256927    0.646803    1.018784
      7         14           0        0.091406    0.512920    0.403744
      8          1           0       -1.561918   -0.889641    1.491030
      9          8           0        0.139872    1.512120   -0.614879
     10          8           0        1.037104   -0.778925    0.036513
     11          1           0        0.630392    1.212627    1.598175
     12          1           0       -0.214690    1.285128   -1.475157
     13          6           0        2.429771   -0.699988   -0.158170
     14          1           0        2.812954   -1.709625   -0.316277
     15          1           0        2.933023   -0.270517    0.716502
     16          1           0        2.677961   -0.090104   -1.031974
 ---------------------------------------------------------------------

 SCF Done:  E(RPBE1PBE) =  -560.018367770     A.U. after   13 cycles

 The electronic state is 1-A.
 Alpha  occ. eigenvalues --  -66.22127 -19.21177 -19.18982 -10.26099 -10.21550
 Alpha  occ. eigenvalues --  -10.19928  -5.30781  -3.64415  -3.64103  -3.63941
 Alpha  occ. eigenvalues --   -1.09019  -1.02786  -0.77758  -0.70050  -0.63801
 Alpha  occ. eigenvalues --   -0.60247  -0.51440  -0.46856  -0.46513  -0.46024
 Alpha  occ. eigenvalues --   -0.43404  -0.42034  -0.40595  -0.39377  -0.36565
 Alpha  occ. eigenvalues --   -0.35745  -0.31330  -0.29852  -0.28760
 Alpha virt. eigenvalues --    0.01996   0.06098   0.06486   0.08384   0.09110
 Alpha virt. eigenvalues --    0.10476   0.11299   0.11966   0.12517   0.13533
 Alpha virt. eigenvalues --    0.15111   0.15475   0.16820   0.17455   0.19687

 Mulliken atomic charges:
              1
     1  H    0.130584
     2  C   -0.398811
     3  C   -0.328694
     4  H    0.098799
     5  H    0.144354
     6  H    0.116433
     7  Si   0.476058
     8  H    0.114320
     9  O   -0.385342
    10  O   -0.354652
    11  H   -0.088111
    12  H    0.330010
    13  C   -0.210977
    14  H    0.127882
    15  H    0.117515
    16  H    0.110631
 Sum of Mulliken atomic charges =   0.00000

 Dipole moment (field-independent basis, Debye):
    X=             -0.2601    Y=             -0.0317    Z=             -1.4749  Tot=              1.4980
 Quadrupole moment (field-independent basis, Debye-Ang):
   XX=            -41.7504   YY=            -48.1483   ZZ=            -42.8554
   XY=             -1.4813   XZ=             -0.1519   YZ=             -1.7917

 Normal termination of Gaussian 09 at Fri Aug 10 04:18:13 2018.
