 Gaussian 09, Revision C.01,
 Gaussian 09:  EM64L-G09RevC.01 23-Sep-2011

 --------------------------------------
 #SP PBE1PBE/Def2TZVP geom=connectivity
 --------------------------------------

 99/5=1,9=1/99;
 ------------
 Structure: 6
 ------------
 Charge =  0 Multiplicity = 1

                         Standard orientation:
 ---------------------------------------------------------------------
 Center     Atomic      Atomic             Coordinates (Angstroms)
 Number     Number       Type             X           Y           Z
 ---------------------------------------------------------------------
      1          1           0        3.224783   -1.248687    0.278166
      2          6           0        2.231715   -0.860783    0.518991
      3          6           0        1.617784   -0.114171   -0.664540
      4          1           0        2.348464   -0.209953    1.390830
      5          1           0        1.609483   -1.707483    0.819217
      6          1           0        2.256443    0.725940   -0.959039
      7         14           0       -0.091572    0.551608   -0.352984
      8          1           0        1.559345   -0.772703   -1.537689
      9          8           0       -0.135329    1.402988    0.645908
     10          8           0       -1.038445   -0.761871   -0.076812
     11          1           0       -0.630676    1.334237   -1.494746
     12          1           0        0.219702    1.115236    1.488696
     13          6           0       -2.430874   -0.695344    0.124110
     14          1           0       -2.815075   -1.713195    0.211072
     15          1           0       -2.934307   -0.204827   -0.717739
     16          1           0       -2.677713   -0.148219    1.038886
 ---------------------------------------------------------------------

 SCF Done:  E(RPBE1PBE) =  -559.934747539     A.U. after   12 cycles

 The electronic state is 1-A.
 Alpha  occ. eigenvalues --  -66.19957 -19.21232 -19.18487 -10.25950 -10.21489
 Alpha  occ. eigenvalues --  -10.19452  -5.29666  -3.63566  -3.62797  -3.62633
 Alpha  occ. eigenvalues --   -1.12218  -1.02453  -0.77563  -0.69843  -0.64063
 Alpha  occ. eigenvalues --   -0.61860  -0.51571  -0.47854  -0.46770  -0.45892
 Alpha  occ. eigenvalues --   -0.43804  -0.43040  -0.41711  -0.39389  -0.36149
 Alpha  occ. eigenvalues --   -0.35588  -0.30965  -0.29549  -0.28233
 Alpha virt. eigenvalues --    0.01674   0.06211   0.06710   0.08529   0.09140
 Alpha virt. eigenvalues --    0.10563   0.11455   0.12128   0.12580   0.13483
 Alpha virt. eigenvalues --    0.15311   0.15761   0.17188   0.17778   0.19825

 Mulliken atomic charges:
              1
     1  H    0.130932
     2  C   -0.402158
     3  C   -0.343404
     4  H    0.095971
     5  H    0.145556
     6  H    0.114064
     7  Si   0.443361
     8  H    0.112835
     9  O   -0.305210
    10  O   -0.366265
    11  H   -0.102721
    12  H    0.337430
    13  C   -0.211896
    14  H    0.127573
    15  H    0.117789
    16  H    0.106144
 Sum of Mulliken atomic charges =   0.00000

 Dipole moment (field-independent basis, Debye):
    X=              0.2528    Y=              0.1430    Z=              1.8078  Tot=              1.8309
 Quadrupole moment (field-independent basis, Debye-Ang):
   XX=            -41.9957   YY=            -47.7308   ZZ=            -42.8040
   XY=              1.4175   XZ=             -0.1393   YZ=              1.8663

 Normal termination of Gaussian 09 at Fri Aug 10 05:07:47 2018.
