 Gaussian 09, Revision C.01,
 Gaussian 09:  EM64L-G09RevC.01 23-Sep-2011

 --------------------------------------
 #SP PBE1PBE/Def2TZVP geom=connectivity
 --------------------------------------

 99/5=1,9=1/99;
 -------------
 Structure: 61
 -------------
 Charge =  0 Multiplicity = 1

                         Standard orientation:
 ---------------------------------------------------------------------
 Center     Atomic      Atomic             Coordinates (Angstroms)
 Number     Number       Type             X           Y           Z
 ---------------------------------------------------------------------
      1          1           0       -3.226469   -1.235058   -0.352683
      2          6           0       -2.232768   -0.832819   -0.565780
      3          6           0       -1.619003   -0.169232    0.666304
      4          1           0       -2.348056   -0.124008   -1.391376
      5          1           0       -1.611225   -1.657841   -0.922478
      6          1           0       -2.256974    0.649626    1.016827
      7         14           0        0.091355    0.514215    0.402106
      8          1           0       -1.562034   -0.885749    1.492638
      9          8           0        0.140333    1.508705   -0.615951
     10          8           0        1.036998   -0.778520    0.037876
     11          1           0        0.630367    1.216667    1.594913
     12          1           0       -0.214236    1.279734   -1.475701
     13          6           0        2.429669   -0.700095   -0.156985
     14          1           0        2.812809   -1.710113   -0.312748
     15          1           0        2.932937   -0.268618    0.716690
     16          1           0        2.677888   -0.092250   -1.032201
 ---------------------------------------------------------------------

 SCF Done:  E(RPBE1PBE) =  -560.016576255     A.U. after   13 cycles

 The electronic state is 1-A.
 Alpha  occ. eigenvalues --  -66.22063 -19.21185 -19.18965 -10.26094 -10.21549
 Alpha  occ. eigenvalues --  -10.19915  -5.30743  -3.64383  -3.64061  -3.63899
 Alpha  occ. eigenvalues --   -1.09124  -1.02775  -0.77753  -0.70043  -0.63802
 Alpha  occ. eigenvalues --   -0.60306  -0.51441  -0.46874  -0.46516  -0.46022
 Alpha  occ. eigenvalues --   -0.43407  -0.42079  -0.40621  -0.39398  -0.36551
 Alpha  occ. eigenvalues --   -0.35741  -0.31318  -0.29843  -0.28744
 Alpha virt. eigenvalues --    0.01986   0.06105   0.06493   0.08389   0.09112
 Alpha virt. eigenvalues --    0.10479   0.11304   0.11972   0.12520   0.13532
 Alpha virt. eigenvalues --    0.15125   0.15482   0.16831   0.17464   0.19692

 Mulliken atomic charges:
              1
     1  H    0.130595
     2  C   -0.398903
     3  C   -0.329154
     4  H    0.098717
     5  H    0.144394
     6  H    0.116367
     7  Si   0.474829
     8  H    0.114295
     9  O   -0.382631
    10  O   -0.354998
    11  H   -0.088608
    12  H    0.330208
    13  C   -0.210981
    14  H    0.127870
    15  H    0.117521
    16  H    0.110478
 Sum of Mulliken atomic charges =   0.00000

 Dipole moment (field-independent basis, Debye):
    X=             -0.2608    Y=             -0.0254    Z=             -1.4858  Tot=              1.5087
 Quadrupole moment (field-independent basis, Debye-Ang):
   XX=            -41.7589   YY=            -48.1336   ZZ=            -42.8551
   XY=             -1.4802   XZ=             -0.1527   YZ=             -1.7944

 Normal termination of Gaussian 09 at Fri Aug 10 04:03:46 2018.
