 Gaussian 09, Revision C.01,
 Gaussian 09:  EM64L-G09RevC.01 23-Sep-2011

 --------------------------------------
 #SP PBE1PBE/Def2TZVP geom=connectivity
 --------------------------------------

 99/5=1,9=1/99;
 -------------
 Structure: 68
 -------------
 Charge =  0 Multiplicity = 1

                         Standard orientation:
 ---------------------------------------------------------------------
 Center     Atomic      Atomic             Coordinates (Angstroms)
 Number     Number       Type             X           Y           Z
 ---------------------------------------------------------------------
      1          1           0       -3.226720   -1.233060   -0.361849
      2          6           0       -2.232929   -0.829218   -0.571466
      3          6           0       -1.619180   -0.176081    0.666198
      4          1           0       -2.348012   -0.113494   -1.391106
      5          1           0       -1.611488   -1.651327   -0.935000
      6          1           0       -2.257050    0.639920    1.023504
      7         14           0        0.091320    0.509267    0.407911
      8          1           0       -1.562417   -0.899505    1.486505
      9          8           0        0.141083    1.522202   -0.611446
     10          8           0        1.036783   -0.780530    0.032959
     11          1           0        0.630327    1.201609    1.606617
     12          1           0       -0.213435    1.300502   -1.473121
     13          6           0        2.429488   -0.700711   -0.161095
     14          1           0        2.812474   -1.709453   -0.325276
     15          1           0        2.932738   -0.276654    0.716216
     16          1           0        2.677900   -0.085596   -1.031162
 ---------------------------------------------------------------------

 SCF Done:  E(RPBE1PBE) =  -560.023047746     A.U. after   13 cycles

 The electronic state is 1-A.
 Alpha  occ. eigenvalues --  -66.22302 -19.21158 -19.19029 -10.26114 -10.21558
 Alpha  occ. eigenvalues --  -10.19974  -5.30885  -3.64506  -3.64218  -3.64057
 Alpha  occ. eigenvalues --   -1.08737  -1.02814  -0.77779  -0.70070  -0.63801
 Alpha  occ. eigenvalues --   -0.60076  -0.51435  -0.46813  -0.46503  -0.46032
 Alpha  occ. eigenvalues --   -0.43398  -0.41914  -0.40538  -0.39304  -0.36599
 Alpha  occ. eigenvalues --   -0.35760  -0.31362  -0.29882  -0.28807
 Alpha virt. eigenvalues --    0.02018   0.06084   0.06465   0.08368   0.09106
 Alpha virt. eigenvalues --    0.10465   0.11282   0.11949   0.12510   0.13535
 Alpha virt. eigenvalues --    0.15080   0.15459   0.16787   0.17415   0.19672

 Mulliken atomic charges:
              1
     1  H    0.130560
     2  C   -0.398509
     3  C   -0.327479
     4  H    0.099098
     5  H    0.144255
     6  H    0.116670
     7  Si   0.479326
     8  H    0.114498
     9  O   -0.392655
    10  O   -0.353740
    11  H   -0.086934
    12  H    0.329364
    13  C   -0.210916
    14  H    0.127915
    15  H    0.117508
    16  H    0.111039
 Sum of Mulliken atomic charges =   0.00000

 Dipole moment (field-independent basis, Debye):
    X=             -0.2620    Y=             -0.0522    Z=             -1.4465  Tot=              1.4710
 Quadrupole moment (field-independent basis, Debye-Ang):
   XX=            -41.7258   YY=            -48.1930   ZZ=            -42.8595
   XY=             -1.4895   XZ=             -0.1553   YZ=             -1.7879

 Normal termination of Gaussian 09 at Fri Aug 10 04:53:56 2018.
