 Gaussian 09, Revision C.01,
 Gaussian 09:  EM64L-G09RevC.01 23-Sep-2011

 --------------------------------------
 #SP PBE1PBE/Def2TZVP geom=connectivity
 --------------------------------------

 99/5=1,9=1/99;
 -------------
 Structure: 66
 -------------
 Charge =  0 Multiplicity = 1

                         Standard orientation:
 ---------------------------------------------------------------------
 Center     Atomic      Atomic             Coordinates (Angstroms)
 Number     Number       Type             X           Y           Z
 ---------------------------------------------------------------------
      1          1           0       -3.226557   -1.233820   -0.359067
      2          6           0       -2.232812   -0.830413   -0.569741
      3          6           0       -1.619061   -0.174136    0.666258
      4          1           0       -2.348002   -0.116746   -1.391158
      5          1           0       -1.611316   -1.653370   -0.931256
      6          1           0       -2.256986    0.642696    1.021561
      7         14           0        0.091365    0.510720    0.406176
      8          1           0       -1.562191   -0.895507    1.488365
      9          8           0        0.140541    1.518385   -0.612647
     10          8           0        1.036926   -0.779923    0.034395
     11          1           0        0.630369    1.206098    1.603124
     12          1           0       -0.214073    1.294189   -1.474695
     13          6           0        2.429613   -0.700463   -0.159928
     14          1           0        2.812682   -1.709577   -0.321612
     15          1           0        2.932869   -0.274174    0.716297
     16          1           0        2.677926   -0.087498   -1.031539
 ---------------------------------------------------------------------

 SCF Done:  E(RPBE1PBE) =  -560.021206303     A.U. after   13 cycles

 The electronic state is 1-A.
 Alpha  occ. eigenvalues --  -66.22231 -19.21173 -19.19011 -10.26108 -10.21555
 Alpha  occ. eigenvalues --  -10.19955  -5.30842  -3.64468  -3.64170  -3.64009
 Alpha  occ. eigenvalues --   -1.08832  -1.02802  -0.77770  -0.70062  -0.63797
 Alpha  occ. eigenvalues --   -0.60126  -0.51437  -0.46828  -0.46506  -0.46028
 Alpha  occ. eigenvalues --   -0.43400  -0.41961  -0.40556  -0.39334  -0.36584
 Alpha  occ. eigenvalues --   -0.35754  -0.31349  -0.29870  -0.28787
 Alpha virt. eigenvalues --    0.01998   0.06090   0.06471   0.08375   0.09105
 Alpha virt. eigenvalues --    0.10469   0.11289   0.11956   0.12513   0.13533
 Alpha virt. eigenvalues --    0.15094   0.15465   0.16801   0.17428   0.19678

 Mulliken atomic charges:
              1
     1  H    0.130572
     2  C   -0.398645
     3  C   -0.327946
     4  H    0.098961
     5  H    0.144294
     6  H    0.116574
     7  Si   0.478005
     8  H    0.114421
     9  O   -0.389930
    10  O   -0.354102
    11  H   -0.087413
    12  H    0.329857
    13  C   -0.210938
    14  H    0.127903
    15  H    0.117518
    16  H    0.110869
 Sum of Mulliken atomic charges =   0.00000

 Dipole moment (field-independent basis, Debye):
    X=             -0.2610    Y=             -0.0446    Z=             -1.4595  Tot=              1.4833
 Quadrupole moment (field-independent basis, Debye-Ang):
   XX=            -41.7366   YY=            -48.1781   ZZ=            -42.8550
   XY=             -1.4864   XZ=             -0.1538   YZ=             -1.7910

 Normal termination of Gaussian 09 at Fri Aug 10 04:39:39 2018.
