 Gaussian 09, Revision C.01,
 Gaussian 09:  EM64L-G09RevC.01 23-Sep-2011

 --------------------------------------
 #SP PBE1PBE/Def2TZVP geom=connectivity
 --------------------------------------

 99/5=1,9=1/99;
 -------------
 Structure: 76
 -------------
 Charge =  0 Multiplicity = 1

                         Standard orientation:
 ---------------------------------------------------------------------
 Center     Atomic      Atomic             Coordinates (Angstroms)
 Number     Number       Type             X           Y           Z
 ---------------------------------------------------------------------
      1          1           0       -3.227087   -1.230551   -0.372108
      2          6           0       -2.233177   -0.824985   -0.577797
      3          6           0       -1.619433   -0.183657    0.666029
      4          1           0       -2.347994   -0.101560   -1.390685
      5          1           0       -1.611880   -1.643784   -0.948969
      6          1           0       -2.257160    0.629095    1.030914
      7         14           0        0.091257    0.503694    0.414408
      8          1           0       -1.562938   -0.914776    1.479505
      9          8           0        0.142322    1.537150   -0.606341
     10          8           0        1.036471   -0.782739    0.027461
     11          1           0        0.630273    1.184609    1.619637
     12          1           0       -0.213121    1.322968   -1.470867
     13          6           0        2.429218   -0.701420   -0.165664
     14          1           0        2.811992   -1.708662   -0.339277
     15          1           0        2.932456   -0.285748    0.715657
     16          1           0        2.677879   -0.078209   -1.029878
 ---------------------------------------------------------------------

 SCF Done:  E(RPBE1PBE) =  -560.029506848     A.U. after   13 cycles

 The electronic state is 1-A.
 Alpha  occ. eigenvalues --  -66.22563 -19.21129 -19.19097 -10.26135 -10.21571
 Alpha  occ. eigenvalues --  -10.20042  -5.31045  -3.64647  -3.64392  -3.64231
 Alpha  occ. eigenvalues --   -1.08286  -1.02851  -0.77810  -0.70099  -0.63802
 Alpha  occ. eigenvalues --   -0.59790  -0.51427  -0.46759  -0.46490  -0.46039
 Alpha  occ. eigenvalues --   -0.43393  -0.41720  -0.40480  -0.39154  -0.36652
 Alpha  occ. eigenvalues --   -0.35782  -0.31408  -0.29924  -0.28877
 Alpha virt. eigenvalues --    0.02037   0.06059   0.06430   0.08345   0.09096
 Alpha virt. eigenvalues --    0.10448   0.11255   0.11921   0.12498   0.13535
 Alpha virt. eigenvalues --    0.15024   0.15435   0.16734   0.17358   0.19648

 Mulliken atomic charges:
              1
     1  H    0.130534
     2  C   -0.398100
     3  C   -0.325629
     4  H    0.099506
     5  H    0.144126
     6  H    0.117017
     7  Si   0.484284
     8  H    0.114742
     9  O   -0.404088
    10  O   -0.352376
    11  H   -0.085035
    12  H    0.328745
    13  C   -0.210841
    14  H    0.127957
    15  H    0.117483
    16  H    0.111674
 Sum of Mulliken atomic charges =   0.00000

 Dipole moment (field-independent basis, Debye):
    X=             -0.2656    Y=             -0.0840    Z=             -1.4029  Tot=              1.4303
 Quadrupole moment (field-independent basis, Debye-Ang):
   XX=            -41.6892   YY=            -48.2642   ZZ=            -42.8612
   XY=             -1.5012   XZ=             -0.1558   YZ=             -1.7797

 Normal termination of Gaussian 09 at Fri Aug 10 05:57:56 2018.
