 Gaussian 09, Revision C.01,
 Gaussian 09:  EM64L-G09RevC.01 23-Sep-2011

 --------------------------------------
 #SP PBE1PBE/Def2TZVP geom=connectivity
 --------------------------------------

 99/5=1,9=1/99;
 -------------
 Structure: 74
 -------------
 Charge =  0 Multiplicity = 1

                         Standard orientation:
 ---------------------------------------------------------------------
 Center     Atomic      Atomic             Coordinates (Angstroms)
 Number     Number       Type             X           Y           Z
 ---------------------------------------------------------------------
      1          1           0       -3.226950   -1.231307   -0.369400
      2          6           0       -2.233079   -0.826174   -0.576132
      3          6           0       -1.619341   -0.181711    0.666075
      4          1           0       -2.347984   -0.104778   -1.390809
      5          1           0       -1.611730   -1.645841   -0.945293
      6          1           0       -2.257119    0.631894    1.028965
      7         14           0        0.091285    0.505150    0.412685
      8          1           0       -1.562758   -0.910803    1.481361
      9          8           0        0.141786    1.533315   -0.607595
     10          8           0        1.036587   -0.782165    0.028898
     11          1           0        0.630292    1.189098    1.616200
     12          1           0       -0.212762    1.317330   -1.471763
     13          6           0        2.429321   -0.701215   -0.164480
     14          1           0        2.812169   -1.708854   -0.335605
     15          1           0        2.932558   -0.283316    0.715789
     16          1           0        2.677901   -0.080131   -1.030247
 ---------------------------------------------------------------------

 SCF Done:  E(RPBE1PBE) =  -560.027884994     A.U. after   13 cycles

 The electronic state is 1-A.
 Alpha  occ. eigenvalues --  -66.22494 -19.21137 -19.19080 -10.26130 -10.21566
 Alpha  occ. eigenvalues --  -10.20022  -5.31002  -3.64609  -3.64346  -3.64185
 Alpha  occ. eigenvalues --   -1.08402  -1.02843  -0.77800  -0.70092  -0.63800
 Alpha  occ. eigenvalues --   -0.59866  -0.51429  -0.46771  -0.46493  -0.46036
 Alpha  occ. eigenvalues --   -0.43393  -0.41771  -0.40489  -0.39198  -0.36638
 Alpha  occ. eigenvalues --   -0.35775  -0.31397  -0.29913  -0.28857
 Alpha virt. eigenvalues --    0.02032   0.06066   0.06439   0.08352   0.09098
 Alpha virt. eigenvalues --    0.10452   0.11263   0.11929   0.12502   0.13536
 Alpha virt. eigenvalues --    0.15039   0.15441   0.16749   0.17372   0.19655

 Mulliken atomic charges:
              1
     1  H    0.130535
     2  C   -0.398212
     3  C   -0.326086
     4  H    0.099401
     5  H    0.144145
     6  H    0.116914
     7  Si   0.483044
     8  H    0.114662
     9  O   -0.401138
    10  O   -0.352733
    11  H   -0.085539
    12  H    0.328930
    13  C   -0.210863
    14  H    0.127951
    15  H    0.117496
    16  H    0.111492
 Sum of Mulliken atomic charges =   0.00000

 Dipole moment (field-independent basis, Debye):
    X=             -0.2631    Y=             -0.0752    Z=             -1.4154  Tot=              1.4416
 Quadrupole moment (field-independent basis, Debye-Ang):
   XX=            -41.7000   YY=            -48.2451   ZZ=            -42.8588
   XY=             -1.4972   XZ=             -0.1571   YZ=             -1.7838

 Normal termination of Gaussian 09 at Fri Aug 10 05:43:45 2018.
