 Gaussian 09, Revision C.01,
 Gaussian 09:  EM64L-G09RevC.01 23-Sep-2011

 --------------------------------------
 #SP PBE1PBE/Def2TZVP geom=connectivity
 --------------------------------------

 99/5=1,9=1/99;
 -------------
 Structure: 77
 -------------
 Charge =  0 Multiplicity = 1

                         Standard orientation:
 ---------------------------------------------------------------------
 Center     Atomic      Atomic             Coordinates (Angstroms)
 Number     Number       Type             X           Y           Z
 ---------------------------------------------------------------------
      1          1           0       -3.226848   -1.230659   -0.373345
      2          6           0       -2.232984   -0.824736   -0.578555
      3          6           0       -1.619278   -0.184885    0.666050
      4          1           0       -2.347894   -0.100317   -1.390544
      5          1           0       -1.611611   -1.643011   -0.950755
      6          1           0       -2.257079    0.627349    1.031956
      7         14           0        0.091336    0.502953    0.415240
      8          1           0       -1.562689   -0.917005    1.478618
      9          8           0        0.141380    1.539129   -0.605677
     10          8           0        1.036673   -0.782903    0.026679
     11          1           0        0.630310    1.182431    1.621299
     12          1           0       -0.213080    1.326656   -1.469698
     13          6           0        2.429407   -0.701202   -0.166377
     14          1           0        2.812282   -1.708188   -0.341244
     15          1           0        2.932623   -0.286569    0.715447
     16          1           0        2.677985   -0.076895   -1.029824
 ---------------------------------------------------------------------

 SCF Done:  E(RPBE1PBE) =  -560.030303354     A.U. after   13 cycles

 The electronic state is 1-A.
 Alpha  occ. eigenvalues --  -66.22598 -19.21115 -19.19110 -10.26140 -10.21570
 Alpha  occ. eigenvalues --  -10.20047  -5.31067  -3.64667  -3.64416  -3.64256
 Alpha  occ. eigenvalues --   -1.08252  -1.02861  -0.77811  -0.70106  -0.63804
 Alpha  occ. eigenvalues --   -0.59782  -0.51429  -0.46754  -0.46490  -0.46038
 Alpha  occ. eigenvalues --   -0.43393  -0.41696  -0.40473  -0.39136  -0.36660
 Alpha  occ. eigenvalues --   -0.35783  -0.31417  -0.29931  -0.28885
 Alpha virt. eigenvalues --    0.02057   0.06055   0.06430   0.08342   0.09098
 Alpha virt. eigenvalues --    0.10446   0.11254   0.11917   0.12497   0.13538
 Alpha virt. eigenvalues --    0.15013   0.15434   0.16731   0.17354   0.19646

 Mulliken atomic charges:
              1
     1  H    0.130516
     2  C   -0.398033
     3  C   -0.325384
     4  H    0.099572
     5  H    0.144080
     6  H    0.117041
     7  Si   0.485087
     8  H    0.114733
     9  O   -0.405333
    10  O   -0.352192
    11  H   -0.084792
    12  H    0.328343
    13  C   -0.210864
    14  H    0.127975
    15  H    0.117493
    16  H    0.111757
 Sum of Mulliken atomic charges =   0.00000

 Dipole moment (field-independent basis, Debye):
    X=             -0.2626    Y=             -0.0871    Z=             -1.3968  Tot=              1.4239
 Quadrupole moment (field-independent basis, Debye-Ang):
   XX=            -41.6833   YY=            -48.2697   ZZ=            -42.8633
   XY=             -1.5002   XZ=             -0.1574   YZ=             -1.7795

 Normal termination of Gaussian 09 at Fri Aug 10 06:04:59 2018.
