 Gaussian 09, Revision C.01,
 Gaussian 09:  EM64L-G09RevC.01 23-Sep-2011

 --------------------------------------
 #SP PBE1PBE/Def2TZVP geom=connectivity
 --------------------------------------

 99/5=1,9=1/99;
 -------------
 Structure: 72
 -------------
 Charge =  0 Multiplicity = 1

                         Standard orientation:
 ---------------------------------------------------------------------
 Center     Atomic      Atomic             Coordinates (Angstroms)
 Number     Number       Type             X           Y           Z
 ---------------------------------------------------------------------
      1          1           0       -3.226758   -1.231941   -0.367038
      2          6           0       -2.232938   -0.827136   -0.574655
      3          6           0       -1.619215   -0.180021    0.666179
      4          1           0       -2.347952   -0.107452   -1.390830
      5          1           0       -1.611519   -1.647507   -0.942133
      6          1           0       -2.257063    0.634272    1.027399
      7         14           0        0.091328    0.506488    0.411286
      8          1           0       -1.562523   -0.907406    1.482982
      9          8           0        0.141164    1.529469   -0.609046
     10          8           0        1.036749   -0.781525    0.030145
     11          1           0        0.630314    1.193001    1.613350
     12          1           0       -0.213326    1.311955   -1.471799
     13          6           0        2.429466   -0.700834   -0.163459
     14          1           0        2.812412   -1.708788   -0.332499
     15          1           0        2.932696   -0.281048    0.715915
     16          1           0        2.677946   -0.081531   -1.030530
 ---------------------------------------------------------------------

 SCF Done:  E(RPBE1PBE) =  -560.026394756     A.U. after   13 cycles

 The electronic state is 1-A.
 Alpha  occ. eigenvalues --  -66.22435 -19.21138 -19.19063 -10.26124 -10.21563
 Alpha  occ. eigenvalues --  -10.20006  -5.30966  -3.64577  -3.64306  -3.64145
 Alpha  occ. eigenvalues --   -1.08520  -1.02834  -0.77792  -0.70085  -0.63801
 Alpha  occ. eigenvalues --   -0.59948  -0.51431  -0.46784  -0.46496  -0.46035
 Alpha  occ. eigenvalues --   -0.43394  -0.41817  -0.40503  -0.39235  -0.36627
 Alpha  occ. eigenvalues --   -0.35770  -0.31385  -0.29902  -0.28842
 Alpha virt. eigenvalues --    0.02036   0.06071   0.06449   0.08357   0.09102
 Alpha virt. eigenvalues --    0.10457   0.11270   0.11935   0.12505   0.13536
 Alpha virt. eigenvalues --    0.15050   0.15447   0.16761   0.17391   0.19661

 Mulliken atomic charges:
              1
     1  H    0.130541
     2  C   -0.398306
     3  C   -0.326532
     4  H    0.099303
     5  H    0.144179
     6  H    0.116826
     7  Si   0.481889
     8  H    0.114595
     9  O   -0.398329
    10  O   -0.353048
    11  H   -0.085941
    12  H    0.328931
    13  C   -0.210889
    14  H    0.127938
    15  H    0.117492
    16  H    0.111353
 Sum of Mulliken atomic charges =   0.00000

 Dipole moment (field-independent basis, Debye):
    X=             -0.2623    Y=             -0.0668    Z=             -1.4239  Tot=              1.4494
 Quadrupole moment (field-independent basis, Debye-Ang):
   XX=            -41.7079   YY=            -48.2255   ZZ=            -42.8603
   XY=             -1.4936   XZ=             -0.1556   YZ=             -1.7833

 Normal termination of Gaussian 09 at Fri Aug 10 05:29:32 2018.
