 Gaussian 09, Revision C.01,
 Gaussian 09:  EM64L-G09RevC.01 23-Sep-2011

 --------------------------------------
 #SP PBE1PBE/Def2TZVP geom=connectivity
 --------------------------------------

 99/5=1,9=1/99;
 -------------
 Structure: 71
 -------------
 Charge =  0 Multiplicity = 1

                         Standard orientation:
 ---------------------------------------------------------------------
 Center     Atomic      Atomic             Coordinates (Angstroms)
 Number     Number       Type             X           Y           Z
 ---------------------------------------------------------------------
      1          1           0       -3.226617   -1.232414   -0.365829
      2          6           0       -2.232833   -0.827761   -0.573912
      3          6           0       -1.619114   -0.179278    0.666210
      4          1           0       -2.347925   -0.108957   -1.390851
      5          1           0       -1.611369   -1.648480   -0.940536
      6          1           0       -2.257006    0.635355    1.026582
      7         14           0        0.091373    0.507079    0.410526
      8          1           0       -1.562342   -0.905787    1.483786
      9          8           0        0.140675    1.528038   -0.609506
     10          8           0        1.036871   -0.781274    0.030727
     11          1           0        0.630350    1.194912    1.611838
     12          1           0       -0.213829    1.309578   -1.472014
     13          6           0        2.429576   -0.700691   -0.163010
     14          1           0        2.812588   -1.708798   -0.330987
     15          1           0        2.932806   -0.279931    0.715898
     16          1           0        2.677983   -0.082297   -1.030750
 ---------------------------------------------------------------------

 SCF Done:  E(RPBE1PBE) =  -560.025698379     A.U. after   13 cycles

 The electronic state is 1-A.
 Alpha  occ. eigenvalues --  -66.22406 -19.21143 -19.19057 -10.26123 -10.21562
 Alpha  occ. eigenvalues --  -10.19997  -5.30949  -3.64562  -3.64287  -3.64126
 Alpha  occ. eigenvalues --   -1.08566  -1.02831  -0.77789  -0.70083  -0.63801
 Alpha  occ. eigenvalues --   -0.59975  -0.51433  -0.46790  -0.46498  -0.46034
 Alpha  occ. eigenvalues --   -0.43395  -0.41838  -0.40509  -0.39251  -0.36621
 Alpha  occ. eigenvalues --   -0.35767  -0.31382  -0.29898  -0.28834
 Alpha virt. eigenvalues --    0.02032   0.06074   0.06453   0.08360   0.09103
 Alpha virt. eigenvalues --    0.10458   0.11273   0.11938   0.12505   0.13536
 Alpha virt. eigenvalues --    0.15056   0.15450   0.16768   0.17397   0.19664

 Mulliken atomic charges:
              1
     1  H    0.130543
     2  C   -0.398350
     3  C   -0.326736
     4  H    0.099249
     5  H    0.144191
     6  H    0.116790
     7  Si   0.481365
     8  H    0.114559
     9  O   -0.397118
    10  O   -0.353186
    11  H   -0.086154
    12  H    0.329022
    13  C   -0.210907
    14  H    0.127937
    15  H    0.117503
    16  H    0.111293
 Sum of Mulliken atomic charges =   0.00000

 Dipole moment (field-independent basis, Debye):
    X=             -0.2614    Y=             -0.0638    Z=             -1.4289  Tot=              1.4540
 Quadrupole moment (field-independent basis, Debye-Ang):
   XX=            -41.7110   YY=            -48.2191   ZZ=            -42.8605
   XY=             -1.4923   XZ=             -0.1551   YZ=             -1.7844

 Normal termination of Gaussian 09 at Fri Aug 10 05:22:15 2018.
