 Gaussian 09, Revision C.01,
 Gaussian 09:  EM64L-G09RevC.01 23-Sep-2011

 --------------------------------------
 #SP PBE1PBE/Def2TZVP geom=connectivity
 --------------------------------------

 99/5=1,9=1/99;
 ------------
 Structure: 7
 ------------
 Charge =  0 Multiplicity = 1

                         Standard orientation:
 ---------------------------------------------------------------------
 Center     Atomic      Atomic             Coordinates (Angstroms)
 Number     Number       Type             X           Y           Z
 ---------------------------------------------------------------------
      1          1           0        3.224777   -1.248511    0.279726
      2          6           0        2.231706   -0.860262    0.519980
      3          6           0        1.617773   -0.115385   -0.664641
      4          1           0        2.348448   -0.208158    1.390868
      5          1           0        1.609479   -1.706527    0.821442
      6          1           0        2.256427    0.724300   -0.960366
      7         14           0       -0.091588    0.550837   -0.354063
      8          1           0        1.559341   -0.775192   -1.536827
      9          8           0       -0.135368    1.405352    0.645370
     10          8           0       -1.038454   -0.762244   -0.075975
     11          1           0       -0.630695    1.331793   -1.496969
     12          1           0        0.220572    1.118478    1.488358
     13          6           0       -2.430884   -0.695433    0.124846
     14          1           0       -2.815077   -1.713159    0.213294
     15          1           0       -2.934317   -0.206150   -0.717720
     16          1           0       -2.677729   -0.146974    1.038821
 ---------------------------------------------------------------------

 SCF Done:  E(RPBE1PBE) =  -559.937241930     A.U. after   12 cycles

 The electronic state is 1-A.
 Alpha  occ. eigenvalues --  -66.20007 -19.21237 -19.18497 -10.25953 -10.21491
 Alpha  occ. eigenvalues --  -10.19463  -5.29687  -3.63580  -3.62824  -3.62661
 Alpha  occ. eigenvalues --   -1.12148  -1.02461  -0.77568  -0.69847  -0.64045
 Alpha  occ. eigenvalues --   -0.61829  -0.51566  -0.47823  -0.46760  -0.45897
 Alpha  occ. eigenvalues --   -0.43788  -0.43027  -0.41692  -0.39395  -0.36158
 Alpha  occ. eigenvalues --   -0.35593  -0.30973  -0.29555  -0.28246
 Alpha virt. eigenvalues --    0.01677   0.06209   0.06705   0.08526   0.09140
 Alpha virt. eigenvalues --    0.10561   0.11451   0.12125   0.12577   0.13483
 Alpha virt. eigenvalues --    0.15309   0.15754   0.17180   0.17773   0.19822

 Mulliken atomic charges:
              1
     1  H    0.130932
     2  C   -0.402086
     3  C   -0.343113
     4  H    0.096013
     5  H    0.145548
     6  H    0.114128
     7  Si   0.443837
     8  H    0.112875
     9  O   -0.306833
    10  O   -0.365983
    11  H   -0.102395
    12  H    0.337333
    13  C   -0.211872
    14  H    0.127576
    15  H    0.117780
    16  H    0.106260
 Sum of Mulliken atomic charges =   0.00000

 Dipole moment (field-independent basis, Debye):
    X=              0.2544    Y=              0.1391    Z=              1.7999  Tot=              1.8231
 Quadrupole moment (field-independent basis, Debye-Ang):
   XX=            -41.9891   YY=            -47.7402   ZZ=            -42.8075
   XY=              1.4195   XZ=             -0.1373   YZ=              1.8624

 Normal termination of Gaussian 09 at Fri Aug 10 06:15:32 2018.
