 Gaussian 09, Revision C.01,
 Gaussian 09:  EM64L-G09RevC.01 23-Sep-2011

 --------------------------------------
 #SP PBE1PBE/Def2TZVP geom=connectivity
 --------------------------------------

 99/5=1,9=1/99;
 -------------
 Structure: 75
 -------------
 Charge =  0 Multiplicity = 1

                         Standard orientation:
 ---------------------------------------------------------------------
 Center     Atomic      Atomic             Coordinates (Angstroms)
 Number     Number       Type             X           Y           Z
 ---------------------------------------------------------------------
      1          1           0       -3.226972   -1.230986   -0.370976
      2          6           0       -2.233091   -0.825574   -0.577106
      3          6           0       -1.619357   -0.182926    0.666043
      4          1           0       -2.347969   -0.102994   -1.390737
      5          1           0       -1.611754   -1.644718   -0.947448
      6          1           0       -2.257123    0.630164    1.030104
      7         14           0        0.091287    0.504266    0.413673
      8          1           0       -1.562800   -0.913202    1.480271
      9          8           0        0.141841    1.535729   -0.606753
     10          8           0        1.036568   -0.782509    0.028032
     11          1           0        0.630291    1.186457    1.618187
     12          1           0       -0.212700    1.321006   -1.471239
     13          6           0        2.429306   -0.701307   -0.165209
     14          1           0        2.812137   -1.708705   -0.337790
     15          1           0        2.932540   -0.284696    0.715672
     16          1           0        2.677911   -0.078973   -1.030070
 ---------------------------------------------------------------------

 SCF Done:  E(RPBE1PBE) =  -560.028862188     A.U. after   13 cycles

 The electronic state is 1-A.
 Alpha  occ. eigenvalues --  -66.22535 -19.21132 -19.19092 -10.26134 -10.21568
 Alpha  occ. eigenvalues --  -10.20032  -5.31028  -3.64632  -3.64373  -3.64213
 Alpha  occ. eigenvalues --   -1.08335  -1.02849  -0.77805  -0.70097  -0.63801
 Alpha  occ. eigenvalues --   -0.59825  -0.51429  -0.46764  -0.46492  -0.46037
 Alpha  occ. eigenvalues --   -0.43393  -0.41741  -0.40481  -0.39173  -0.36646
 Alpha  occ. eigenvalues --   -0.35778  -0.31404  -0.29920  -0.28868
 Alpha virt. eigenvalues --    0.02037   0.06062   0.06434   0.08348   0.09097
 Alpha virt. eigenvalues --    0.10450   0.11259   0.11924   0.12500   0.13536
 Alpha virt. eigenvalues --    0.15030   0.15438   0.16741   0.17363   0.19651

 Mulliken atomic charges:
              1
     1  H    0.130529
     2  C   -0.398144
     3  C   -0.325799
     4  H    0.099468
     5  H    0.144121
     6  H    0.116968
     7  Si   0.483844
     8  H    0.114697
     9  O   -0.402888
    10  O   -0.352519
    11  H   -0.085252
    12  H    0.328782
    13  C   -0.210857
    14  H    0.127960
    15  H    0.117497
    16  H    0.111593
 Sum of Mulliken atomic charges =   0.00000

 Dipole moment (field-independent basis, Debye):
    X=             -0.2632    Y=             -0.0803    Z=             -1.4086  Tot=              1.4353
 Quadrupole moment (field-independent basis, Debye-Ang):
   XX=            -41.6939   YY=            -48.2562   ZZ=            -42.8596
   XY=             -1.4989   XZ=             -0.1576   YZ=             -1.7829

 Normal termination of Gaussian 09 at Fri Aug 10 05:50:59 2018.
