 Gaussian 09, Revision C.01,
 Gaussian 09:  EM64L-G09RevC.01 23-Sep-2011

 --------------------------------------
 #SP PBE1PBE/Def2TZVP geom=connectivity
 --------------------------------------

 99/5=1,9=1/99;
 -------------
 Structure: 70
 -------------
 Charge =  0 Multiplicity = 1

                         Standard orientation:
 ---------------------------------------------------------------------
 Center     Atomic      Atomic             Coordinates (Angstroms)
 Number     Number       Type             X           Y           Z
 ---------------------------------------------------------------------
      1          1           0       -3.226595   -1.232729   -0.364246
      2          6           0       -2.232822   -0.828360   -0.572932
      3          6           0       -1.619099   -0.178060    0.666236
      4          1           0       -2.347939   -0.110748   -1.390915
      5          1           0       -1.611346   -1.649599   -0.938369
      6          1           0       -2.257002    0.637084    1.025431
      7         14           0        0.091371    0.507958    0.409530
      8          1           0       -1.562301   -0.903377    1.484869
      9          8           0        0.140621    1.525623   -0.610337
     10          8           0        1.036890   -0.780927    0.031594
     11          1           0        0.630351    1.197550    1.609832
     12          1           0       -0.213890    1.305901   -1.472521
     13          6           0        2.429590   -0.700599   -0.162279
     14          1           0        2.812620   -1.708941   -0.328794
     15          1           0        2.932824   -0.278549    0.716009
     16          1           0        2.677973   -0.083463   -1.030922
 ---------------------------------------------------------------------

 SCF Done:  E(RPBE1PBE) =  -560.024659206     A.U. after   13 cycles

 The electronic state is 1-A.
 Alpha  occ. eigenvalues --  -66.22365 -19.21148 -19.19046 -10.26119 -10.21560
 Alpha  occ. eigenvalues --  -10.19987  -5.30923  -3.64540  -3.64260  -3.64099
 Alpha  occ. eigenvalues --   -1.08633  -1.02824  -0.77784  -0.70078  -0.63800
 Alpha  occ. eigenvalues --   -0.60016  -0.51434  -0.46798  -0.46500  -0.46033
 Alpha  occ. eigenvalues --   -0.43396  -0.41868  -0.40519  -0.39273  -0.36613
 Alpha  occ. eigenvalues --   -0.35764  -0.31374  -0.29891  -0.28823
 Alpha virt. eigenvalues --    0.02027   0.06078   0.06458   0.08363   0.09104
 Alpha virt. eigenvalues --    0.10461   0.11277   0.11942   0.12507   0.13536
 Alpha virt. eigenvalues --    0.15065   0.15453   0.16775   0.17406   0.19667

 Mulliken atomic charges:
              1
     1  H    0.130550
     2  C   -0.398418
     3  C   -0.327026
     4  H    0.099182
     5  H    0.144216
     6  H    0.116736
     7  Si   0.480566
     8  H    0.114525
     9  O   -0.395361
    10  O   -0.353404
    11  H   -0.086443
    12  H    0.329170
    13  C   -0.210915
    14  H    0.127928
    15  H    0.117503
    16  H    0.111192
 Sum of Mulliken atomic charges =   0.00000

 Dipole moment (field-independent basis, Debye):
    X=             -0.2613    Y=             -0.0589    Z=             -1.4357  Tot=              1.4605
 Quadrupole moment (field-independent basis, Debye-Ang):
   XX=            -41.7171   YY=            -48.2082   ZZ=            -42.8596
   XY=             -1.4906   XZ=             -0.1546   YZ=             -1.7854

 Normal termination of Gaussian 09 at Fri Aug 10 05:15:03 2018.
