 Gaussian 09, Revision C.01,
 Gaussian 09:  EM64L-G09RevC.01 23-Sep-2011

 --------------------------------------
 #SP PBE1PBE/Def2TZVP geom=connectivity
 --------------------------------------

 99/5=1,9=1/99;
 -------------
 Structure: 79
 -------------
 Charge =  0 Multiplicity = 1

                         Standard orientation:
 ---------------------------------------------------------------------
 Center     Atomic      Atomic             Coordinates (Angstroms)
 Number     Number       Type             X           Y           Z
 ---------------------------------------------------------------------
      1          1           0       -3.227012   -1.229851   -0.376121
      2          6           0       -2.233101   -0.823506   -0.580263
      3          6           0       -1.619395   -0.186840    0.665974
      4          1           0       -2.347906   -0.097038   -1.390435
      5          1           0       -1.611786   -1.640899   -0.954488
      6          1           0       -2.257140    0.624531    1.033889
      7         14           0        0.091293    0.501469    0.416975
      8          1           0       -1.562913   -0.921003    1.476704
      9          8           0        0.141926    1.542978   -0.604350
     10          8           0        1.036531   -0.783493    0.025230
     11          1           0        0.630272    1.177866    1.624762
     12          1           0       -0.212512    1.332709   -1.468918
     13          6           0        2.429282   -0.701436   -0.167554
     14          1           0        2.812072   -1.708015   -0.344933
     15          1           0        2.932493   -0.289066    0.715332
     16          1           0        2.677958   -0.074985   -1.029418
 ---------------------------------------------------------------------

 SCF Done:  E(RPBE1PBE) =  -560.031855840     A.U. after   13 cycles

 The electronic state is 1-A.
 Alpha  occ. eigenvalues --  -66.22666 -19.21104 -19.19127 -10.26145 -10.21573
 Alpha  occ. eigenvalues --  -10.20065  -5.31110  -3.64705  -3.64462  -3.64302
 Alpha  occ. eigenvalues --   -1.08139  -1.02870  -0.77819  -0.70113  -0.63806
 Alpha  occ. eigenvalues --   -0.59713  -0.51426  -0.46743  -0.46487  -0.46039
 Alpha  occ. eigenvalues --   -0.43392  -0.41644  -0.40465  -0.39090  -0.36674
 Alpha  occ. eigenvalues --   -0.35788  -0.31428  -0.29941  -0.28904
 Alpha virt. eigenvalues --    0.02065   0.06048   0.06421   0.08336   0.09096
 Alpha virt. eigenvalues --    0.10442   0.11247   0.11910   0.12494   0.13539
 Alpha virt. eigenvalues --    0.14998   0.15429   0.16716   0.17339   0.19640

 Mulliken atomic charges:
              1
     1  H    0.130508
     2  C   -0.397923
     3  C   -0.324898
     4  H    0.099694
     5  H    0.144044
     6  H    0.117131
     7  Si   0.486408
     8  H    0.114804
     9  O   -0.408280
    10  O   -0.351847
    11  H   -0.084295
    12  H    0.328108
    13  C   -0.210841
    14  H    0.127985
    15  H    0.117483
    16  H    0.111918
 Sum of Mulliken atomic charges =   0.00000

 Dipole moment (field-independent basis, Debye):
    X=             -0.2636    Y=             -0.0954    Z=             -1.3850  Tot=              1.4131
 Quadrupole moment (field-independent basis, Debye-Ang):
   XX=            -41.6739   YY=            -48.2875   ZZ=            -42.8638
   XY=             -1.5032   XZ=             -0.1584   YZ=             -1.7776

 Normal termination of Gaussian 09 at Fri Aug 10 06:12:52 2018.
