 Gaussian 09, Revision C.01,
 Gaussian 09:  EM64L-G09RevC.01 23-Sep-2011

 --------------------------------------
 #SP PBE1PBE/Def2TZVP geom=connectivity
 --------------------------------------

 99/5=1,9=1/99;
 -------------
 Structure: 73
 -------------
 Charge =  0 Multiplicity = 1

                         Standard orientation:
 ---------------------------------------------------------------------
 Center     Atomic      Atomic             Coordinates (Angstroms)
 Number     Number       Type             X           Y           Z
 ---------------------------------------------------------------------
      1          1           0       -3.226809   -1.231783   -0.368193
      2          6           0       -2.232974   -0.826800   -0.575390
      3          6           0       -1.619239   -0.180969    0.666108
      4          1           0       -2.347957   -0.106281   -1.390832
      5          1           0       -1.611580   -1.646817   -0.943699
      6          1           0       -2.257062    0.632976    1.028152
      7         14           0        0.091329    0.505742    0.411927
      8          1           0       -1.562577   -0.909188    1.482169
      9          8           0        0.141296    1.531883   -0.608058
     10          8           0        1.036710   -0.781914    0.029481
     11          1           0        0.630328    1.191011    1.614694
     12          1           0       -0.213266    1.314952   -1.471984
     13          6           0        2.429431   -0.701072   -0.164030
     14          1           0        2.812345   -1.708866   -0.334094
     15          1           0        2.932669   -0.282199    0.715775
     16          1           0        2.677938   -0.080894   -1.030468
 ---------------------------------------------------------------------

 SCF Done:  E(RPBE1PBE) =  -560.027208456     A.U. after   13 cycles

 The electronic state is 1-A.
 Alpha  occ. eigenvalues --  -66.22467 -19.21142 -19.19075 -10.26128 -10.21565
 Alpha  occ. eigenvalues --  -10.20014  -5.30985  -3.64594  -3.64327  -3.64166
 Alpha  occ. eigenvalues --   -1.08448  -1.02840  -0.77796  -0.70090  -0.63799
 Alpha  occ. eigenvalues --   -0.59894  -0.51431  -0.46777  -0.46495  -0.46036
 Alpha  occ. eigenvalues --   -0.43394  -0.41792  -0.40494  -0.39215  -0.36632
 Alpha  occ. eigenvalues --   -0.35772  -0.31393  -0.29910  -0.28849
 Alpha virt. eigenvalues --    0.02028   0.06069   0.06443   0.08355   0.09099
 Alpha virt. eigenvalues --    0.10454   0.11266   0.11932   0.12502   0.13535
 Alpha virt. eigenvalues --    0.15045   0.15444   0.16756   0.17378   0.19658

 Mulliken atomic charges:
              1
     1  H    0.130537
     2  C   -0.398255
     3  C   -0.326289
     4  H    0.099347
     5  H    0.144157
     6  H    0.116878
     7  Si   0.482521
     8  H    0.114627
     9  O   -0.399929
    10  O   -0.352870
    11  H   -0.085751
    12  H    0.329020
    13  C   -0.210881
    14  H    0.127950
    15  H    0.117507
    16  H    0.111432
 Sum of Mulliken atomic charges =   0.00000

 Dipole moment (field-independent basis, Debye):
    X=             -0.2622    Y=             -0.0722    Z=             -1.4204  Tot=              1.4462
 Quadrupole moment (field-independent basis, Debye-Ang):
   XX=            -41.7032   YY=            -48.2387   ZZ=            -42.8590
   XY=             -1.4959   XZ=             -0.1566   YZ=             -1.7849

 Normal termination of Gaussian 09 at Fri Aug 10 05:36:36 2018.
