 Gaussian 09, Revision C.01,
 Gaussian 09:  EM64L-G09RevC.01 23-Sep-2011

 --------------------------------------
 #SP PBE1PBE/Def2TZVP geom=connectivity
 --------------------------------------

 99/5=1,9=1/99;
 -------------
 Structure: 78
 -------------
 Charge =  0 Multiplicity = 1

                         Standard orientation:
 ---------------------------------------------------------------------
 Center     Atomic      Atomic             Coordinates (Angstroms)
 Number     Number       Type             X           Y           Z
 ---------------------------------------------------------------------
      1          1           0       -3.226870   -1.230335   -0.374917
      2          6           0       -2.232996   -0.824136   -0.579525
      3          6           0       -1.619293   -0.186099    0.666013
      4          1           0       -2.347880   -0.098540   -1.390466
      5          1           0       -1.611634   -1.641883   -0.952900
      6          1           0       -2.257083    0.625617    1.033085
      7         14           0        0.091338    0.502066    0.416222
      8          1           0       -1.562731   -0.919395    1.477522
      9          8           0        0.141434    1.541543   -0.604827
     10          8           0        1.036654   -0.783245    0.025814
     11          1           0        0.630309    1.179788    1.623271
     12          1           0       -0.213018    1.330328   -1.469159
     13          6           0        2.429393   -0.701293   -0.167105
     14          1           0        2.812249   -1.708033   -0.343424
     15          1           0        2.932605   -0.287947    0.715325
     16          1           0        2.677995   -0.075743   -1.029644
 ---------------------------------------------------------------------

 SCF Done:  E(RPBE1PBE) =  -560.031233166     A.U. after   13 cycles

 The electronic state is 1-A.
 Alpha  occ. eigenvalues --  -66.22639 -19.21109 -19.19121 -10.26144 -10.21571
 Alpha  occ. eigenvalues --  -10.20057  -5.31092  -3.64690  -3.64443  -3.64283
 Alpha  occ. eigenvalues --   -1.08185  -1.02868  -0.77815  -0.70111  -0.63805
 Alpha  occ. eigenvalues --   -0.59741  -0.51428  -0.46748  -0.46489  -0.46039
 Alpha  occ. eigenvalues --   -0.43393  -0.41666  -0.40468  -0.39109  -0.36668
 Alpha  occ. eigenvalues --   -0.35786  -0.31425  -0.29938  -0.28896
 Alpha virt. eigenvalues --    0.02062   0.06051   0.06425   0.08339   0.09097
 Alpha virt. eigenvalues --    0.10443   0.11250   0.11913   0.12495   0.13538
 Alpha virt. eigenvalues --    0.15004   0.15431   0.16723   0.17345   0.19643

 Mulliken atomic charges:
              1
     1  H    0.130510
     2  C   -0.397965
     3  C   -0.325099
     4  H    0.099640
     5  H    0.144056
     6  H    0.117095
     7  Si   0.485885
     8  H    0.114768
     9  O   -0.407078
    10  O   -0.351981
    11  H   -0.084505
    12  H    0.328197
    13  C   -0.210858
    14  H    0.127984
    15  H    0.117494
    16  H    0.111858
 Sum of Mulliken atomic charges =   0.00000

 Dipole moment (field-independent basis, Debye):
    X=             -0.2626    Y=             -0.0923    Z=             -1.3900  Tot=              1.4176
 Quadrupole moment (field-independent basis, Debye-Ang):
   XX=            -41.6771   YY=            -48.2810   ZZ=            -42.8641
   XY=             -1.5019   XZ=             -0.1579   YZ=             -1.7786

 Normal termination of Gaussian 09 at Fri Aug 10 06:09:59 2018.
