 Gaussian 09, Revision C.01,
 Gaussian 09:  EM64L-G09RevC.01 23-Sep-2011

 --------------------------------------
 #SP PBE1PBE/Def2TZVP geom=connectivity
 --------------------------------------

 99/5=1,9=1/99;
 -------------
 Structure: 84
 -------------
 Charge =  0 Multiplicity = 1

                         Standard orientation:
 ---------------------------------------------------------------------
 Center     Atomic      Atomic             Coordinates (Angstroms)
 Number     Number       Type             X           Y           Z
 ---------------------------------------------------------------------
      1          1           0       -3.227103   -1.228515   -0.382401
      2          6           0       -2.233148   -0.821073   -0.584129
      3          6           0       -1.619456   -0.191704    0.665816
      4          1           0       -2.347851   -0.089905   -1.390075
      5          1           0       -1.611880   -1.636332   -0.963061
      6          1           0       -2.257153    0.617569    1.038402
      7         14           0        0.091303    0.497897    0.420906
      8          1           0       -1.563076   -0.930567    1.472272
      9          8           0        0.142147    1.552660   -0.600835
     10          8           0        1.036455   -0.784847    0.021757
     11          1           0        0.630274    1.167226    1.632629
     12          1           0       -0.212335    1.347148   -1.467580
     13          6           0        2.429223   -0.701786   -0.170475
     14          1           0        2.811940   -1.707351   -0.353674
     15          1           0        2.932422   -0.294591    0.714818
     16          1           0        2.677997   -0.070363   -1.028674
 ---------------------------------------------------------------------

 SCF Done:  E(RPBE1PBE) =  -560.035345585     A.U. after   13 cycles

 The electronic state is 1-A.
 Alpha  occ. eigenvalues --  -66.22826 -19.21083 -19.19173 -10.26160 -10.21580
 Alpha  occ. eigenvalues --  -10.20105  -5.31210  -3.64796  -3.64570  -3.64411
 Alpha  occ. eigenvalues --   -1.07855  -1.02894  -0.77837  -0.70133  -0.63809
 Alpha  occ. eigenvalues --   -0.59529  -0.51422  -0.46721  -0.46482  -0.46039
 Alpha  occ. eigenvalues --   -0.43393  -0.41517  -0.40449  -0.38970  -0.36706
 Alpha  occ. eigenvalues --   -0.35800  -0.31459  -0.29969  -0.28946
 Alpha virt. eigenvalues --    0.02075   0.06030   0.06399   0.08321   0.09088
 Alpha virt. eigenvalues --    0.10430   0.11231   0.11891   0.12486   0.13538
 Alpha virt. eigenvalues --    0.14958   0.15415   0.16685   0.17300   0.19624

 Mulliken atomic charges:
              1
     1  H    0.130486
     2  C   -0.397676
     3  C   -0.323737
     4  H    0.099951
     5  H    0.143949
     6  H    0.117341
     7  Si   0.489584
     8  H    0.114937
     9  O   -0.415464
    10  O   -0.351018
    11  H   -0.083133
    12  H    0.327776
    13  C   -0.210819
    14  H    0.128022
    15  H    0.117486
    16  H    0.112315
 Sum of Mulliken atomic charges =   0.00000

 Dipole moment (field-independent basis, Debye):
    X=             -0.2637    Y=             -0.1166    Z=             -1.3593  Tot=              1.3895
 Quadrupole moment (field-independent basis, Debye-Ang):
   XX=            -41.6506   YY=            -48.3350   ZZ=            -42.8628
   XY=             -1.5098   XZ=             -0.1598   YZ=             -1.7752

 Normal termination of Gaussian 09 at Fri Aug 10 06:24:25 2018.
