 Gaussian 09, Revision C.01,
 Gaussian 09:  EM64L-G09RevC.01 23-Sep-2011

 --------------------------------------
 #SP PBE1PBE/Def2TZVP geom=connectivity
 --------------------------------------

 99/5=1,9=1/99;
 -------------
 Structure: 80
 -------------
 Charge =  0 Multiplicity = 1

                         Standard orientation:
 ---------------------------------------------------------------------
 Center     Atomic      Atomic             Coordinates (Angstroms)
 Number     Number       Type             X           Y           Z
 ---------------------------------------------------------------------
      1          1           0       -3.227035   -1.229524   -0.377690
      2          6           0       -2.233113   -0.822904   -0.581230
      3          6           0       -1.619411   -0.188052    0.665934
      4          1           0       -2.347892   -0.095264   -1.390354
      5          1           0       -1.611809   -1.639769   -0.956628
      6          1           0       -2.257144    0.622799    1.035012
      7         14           0        0.091295    0.500580    0.417953
      8          1           0       -1.562955   -0.923388    1.475602
      9          8           0        0.141981    1.545392   -0.603494
     10          8           0        1.036512   -0.783834    0.024365
     11          1           0        0.630271    1.175220    1.626724
     12          1           0       -0.212449    1.336380   -1.468370
     13          6           0        2.429267   -0.701527   -0.168282
     14          1           0        2.812039   -1.707857   -0.347109
     15          1           0        2.932475   -0.290443    0.715207
     16          1           0        2.677968   -0.073837   -1.029236
 ---------------------------------------------------------------------

 SCF Done:  E(RPBE1PBE) =  -560.032754716     A.U. after   13 cycles

 The electronic state is 1-A.
 Alpha  occ. eigenvalues --  -66.22707 -19.21097 -19.19139 -10.26149 -10.21575
 Alpha  occ. eigenvalues --  -10.20075  -5.31135  -3.64728  -3.64489  -3.64329
 Alpha  occ. eigenvalues --   -1.08073  -1.02877  -0.77824  -0.70118  -0.63807
 Alpha  occ. eigenvalues --   -0.59672  -0.51426  -0.46737  -0.46486  -0.46040
 Alpha  occ. eigenvalues --   -0.43392  -0.41613  -0.40461  -0.39062  -0.36682
 Alpha  occ. eigenvalues --   -0.35791  -0.31436  -0.29948  -0.28914
 Alpha virt. eigenvalues --    0.02070   0.06044   0.06417   0.08332   0.09095
 Alpha virt. eigenvalues --    0.10439   0.11243   0.11905   0.12492   0.13539
 Alpha virt. eigenvalues --    0.14988   0.15426   0.16709   0.17330   0.19636

 Mulliken atomic charges:
              1
     1  H    0.130502
     2  C   -0.397855
     3  C   -0.324614
     4  H    0.099763
     5  H    0.144020
     6  H    0.117185
     7  Si   0.487204
     8  H    0.114839
     9  O   -0.410020
    10  O   -0.351638
    11  H   -0.084010
    12  H    0.327963
    13  C   -0.210837
    14  H    0.127995
    15  H    0.117484
    16  H    0.112020
 Sum of Mulliken atomic charges =   0.00000

 Dipole moment (field-independent basis, Debye):
    X=             -0.2636    Y=             -0.1006    Z=             -1.3783  Tot=              1.4069
 Quadrupole moment (field-independent basis, Debye-Ang):
   XX=            -41.6677   YY=            -48.2988   ZZ=            -42.8645
   XY=             -1.5049   XZ=             -0.1589   YZ=             -1.7768

 Normal termination of Gaussian 09 at Fri Aug 10 06:17:45 2018.
