 Gaussian 09, Revision C.01,
 Gaussian 09:  EM64L-G09RevC.01 23-Sep-2011

 --------------------------------------
 #SP PBE1PBE/Def2TZVP geom=connectivity
 --------------------------------------

 99/5=1,9=1/99;
 -------------
 Structure: 83
 -------------
 Charge =  0 Multiplicity = 1

                         Standard orientation:
 ---------------------------------------------------------------------
 Center     Atomic      Atomic             Coordinates (Angstroms)
 Number     Number       Type             X           Y           Z
 ---------------------------------------------------------------------
      1          1           0       -3.227344   -1.228429   -0.381154
      2          6           0       -2.233342   -0.821346   -0.583372
      3          6           0       -1.619615   -0.190459    0.665791
      4          1           0       -2.347947   -0.091187   -1.390246
      5          1           0       -1.612149   -1.637148   -0.961256
      6          1           0       -2.257237    0.619352    1.037336
      7         14           0        0.091221    0.498654    0.420052
      8          1           0       -1.563333   -0.928306    1.473183
      9          8           0        0.143092    1.550654   -0.601584
     10          8           0        1.036250   -0.784694    0.022551
     11          1           0        0.630231    1.169460    1.630939
     12          1           0       -0.212299    1.343710   -1.467893
     13          6           0        2.429032   -0.702022   -0.169751
     14          1           0        2.811648   -1.707857   -0.351668
     15          1           0        2.932251   -0.293758    0.715038
     16          1           0        2.677893   -0.071711   -1.028742
 ---------------------------------------------------------------------

 SCF Done:  E(RPBE1PBE) =  -560.034633435     A.U. after   13 cycles

 The electronic state is 1-A.
 Alpha  occ. eigenvalues --  -66.22792 -19.21092 -19.19161 -10.26155 -10.21581
 Alpha  occ. eigenvalues --  -10.20101  -5.31189  -3.64777  -3.64547  -3.64388
 Alpha  occ. eigenvalues --   -1.07908  -1.02886  -0.77837  -0.70127  -0.63809
 Alpha  occ. eigenvalues --   -0.59554  -0.51421  -0.46725  -0.46482  -0.46042
 Alpha  occ. eigenvalues --   -0.43394  -0.41545  -0.40455  -0.38993  -0.36699
 Alpha  occ. eigenvalues --   -0.35800  -0.31451  -0.29963  -0.28939
 Alpha virt. eigenvalues --    0.02066   0.06035   0.06403   0.08324   0.09089
 Alpha virt. eigenvalues --    0.10432   0.11232   0.11895   0.12487   0.13537
 Alpha virt. eigenvalues --    0.14969   0.15418   0.16689   0.17305   0.19626

 Mulliken atomic charges:
              1
     1  H    0.130502
     2  C   -0.397720
     3  C   -0.324010
     4  H    0.099901
     5  H    0.143993
     6  H    0.117323
     7  Si   0.488788
     8  H    0.114953
     9  O   -0.413985
    10  O   -0.351196
    11  H   -0.083399
    12  H    0.327927
    13  C   -0.210799
    14  H    0.128006
    15  H    0.117477
    16  H    0.112241
 Sum of Mulliken atomic charges =   0.00000

 Dipole moment (field-independent basis, Debye):
    X=             -0.2669    Y=             -0.1132    Z=             -1.3642  Tot=              1.3947
 Quadrupole moment (field-independent basis, Debye-Ang):
   XX=            -41.6550   YY=            -48.3272   ZZ=            -42.8645
   XY=             -1.5110   XZ=             -0.1587   YZ=             -1.7743

 Normal termination of Gaussian 09 at Fri Aug 10 06:22:45 2018.
