 Gaussian 09, Revision C.01,
 Gaussian 09:  EM64L-G09RevC.01 23-Sep-2011

 --------------------------------------
 #SP PBE1PBE/Def2TZVP geom=connectivity
 --------------------------------------

 99/5=1,9=1/99;
 -------------
 Structure: 82
 -------------
 Charge =  0 Multiplicity = 1

                         Standard orientation:
 ---------------------------------------------------------------------
 Center     Atomic      Atomic             Coordinates (Angstroms)
 Number     Number       Type             X           Y           Z
 ---------------------------------------------------------------------
      1          1           0       -3.227200   -1.228706   -0.380458
      2          6           0       -2.233231   -0.821670   -0.582932
      3          6           0       -1.619530   -0.190004    0.665850
      4          1           0       -2.347903   -0.091993   -1.390233
      5          1           0       -1.611984   -1.637648   -0.960346
      6          1           0       -2.257205    0.619979    1.036929
      7         14           0        0.091252    0.499090    0.419677
      8          1           0       -1.563180   -0.927372    1.473675
      9          8           0        0.142530    1.549242   -0.602149
     10          8           0        1.036369   -0.784422    0.022915
     11          1           0        0.630233    1.170647    1.630162
     12          1           0       -0.211879    1.342432   -1.467564
     13          6           0        2.429141   -0.701761   -0.169458
     14          1           0        2.811828   -1.707675   -0.350790
     15          1           0        2.932345   -0.292940    0.715082
     16          1           0        2.677941   -0.071937   -1.028824
 ---------------------------------------------------------------------

 SCF Done:  E(RPBE1PBE) =  -560.034225129     A.U. after   13 cycles

 The electronic state is 1-A.
 Alpha  occ. eigenvalues --  -66.22774 -19.21085 -19.19156 -10.26154 -10.21578
 Alpha  occ. eigenvalues --  -10.20094  -5.31178  -3.64767  -3.64535  -3.64376
 Alpha  occ. eigenvalues --   -1.07961  -1.02885  -0.77832  -0.70126  -0.63810
 Alpha  occ. eigenvalues --   -0.59602  -0.51423  -0.46728  -0.46484  -0.46040
 Alpha  occ. eigenvalues --   -0.43392  -0.41561  -0.40456  -0.39012  -0.36697
 Alpha  occ. eigenvalues --   -0.35797  -0.31448  -0.29959  -0.28933
 Alpha virt. eigenvalues --    0.02079   0.06037   0.06408   0.08325   0.09093
 Alpha virt. eigenvalues --    0.10435   0.11235   0.11897   0.12489   0.13539
 Alpha virt. eigenvalues --    0.14972   0.15421   0.16694   0.17314   0.19629

 Mulliken atomic charges:
              1
     1  H    0.130494
     2  C   -0.397746
     3  C   -0.324132
     4  H    0.099886
     5  H    0.143984
     6  H    0.117275
     7  Si   0.488521
     8  H    0.114910
     9  O   -0.412954
    10  O   -0.351298
    11  H   -0.083516
    12  H    0.327730
    13  C   -0.210816
    14  H    0.128005
    15  H    0.117475
    16  H    0.112182
 Sum of Mulliken atomic charges =   0.00000

 Dipole moment (field-independent basis, Debye):
    X=             -0.2646    Y=             -0.1090    Z=             -1.3666  Tot=              1.3962
 Quadrupole moment (field-independent basis, Debye-Ang):
   XX=            -41.6583   YY=            -48.3168   ZZ=            -42.8650
   XY=             -1.5080   XZ=             -0.1599   YZ=             -1.7750

 Normal termination of Gaussian 09 at Fri Aug 10 06:21:05 2018.
