 Gaussian 09, Revision C.01,
 Gaussian 09:  EM64L-G09RevC.01 23-Sep-2011

 --------------------------------------
 #SP PBE1PBE/Def2TZVP geom=connectivity
 --------------------------------------

 99/5=1,9=1/99;
 -------------
 Structure: 89
 -------------
 Charge =  0 Multiplicity = 1

                         Standard orientation:
 ---------------------------------------------------------------------
 Center     Atomic      Atomic             Coordinates (Angstroms)
 Number     Number       Type             X           Y           Z
 ---------------------------------------------------------------------
      1          1           0       -3.227432   -1.226581   -0.389374
      2          6           0       -2.233377   -0.818060   -0.588407
      3          6           0       -1.619688   -0.196774    0.665577
      4          1           0       -2.347854   -0.081758   -1.389698
      5          1           0       -1.612231   -1.631014   -0.972454
      6          1           0       -2.257264    0.610239    1.043239
      7         14           0        0.091231    0.494034    0.425229
      8          1           0       -1.563535   -0.940763    1.467323
      9          8           0        0.143296    1.562736   -0.597350
     10          8           0        1.036172   -0.786331    0.018024
     11          1           0        0.630210    1.155536    1.641238
     12          1           0       -0.211976    1.362726   -1.464284
     13          6           0        2.428976   -0.702324   -0.173537
     14          1           0        2.811514   -1.706778   -0.363090
     15          1           0        2.932165   -0.300866    0.714378
     16          1           0        2.677960   -0.065504   -1.027678
 ---------------------------------------------------------------------

 SCF Done:  E(RPBE1PBE) =  -560.038821260     A.U. after   13 cycles

 The electronic state is 1-A.
 Alpha  occ. eigenvalues --  -66.22999 -19.21046 -19.19220 -10.26175 -10.21590
 Alpha  occ. eigenvalues --  -10.20154  -5.31322  -3.64899  -3.64689  -3.64531
 Alpha  occ. eigenvalues --   -1.07585  -1.02918  -0.77861  -0.70154  -0.63819
 Alpha  occ. eigenvalues --   -0.59358  -0.51418  -0.46704  -0.46479  -0.46042
 Alpha  occ. eigenvalues --   -0.43396  -0.41383  -0.40451  -0.38830  -0.36743
 Alpha  occ. eigenvalues --   -0.35816  -0.31490  -0.29999  -0.28996
 Alpha virt. eigenvalues --    0.02102   0.06011   0.06380   0.08303   0.09086
 Alpha virt. eigenvalues --    0.10417   0.11211   0.11870   0.12476   0.13540
 Alpha virt. eigenvalues --    0.14913   0.15405   0.16649   0.17261   0.19607

 Mulliken atomic charges:
              1
     1  H    0.130471
     2  C   -0.397372
     3  C   -0.322570
     4  H    0.100269
     5  H    0.143871
     6  H    0.117594
     7  Si   0.492903
     8  H    0.115133
     9  O   -0.422748
    10  O   -0.350145
    11  H   -0.081892
    12  H    0.326980
    13  C   -0.210786
    14  H    0.128052
    15  H    0.117468
    16  H    0.112771
 Sum of Mulliken atomic charges =   0.00000

 Dipole moment (field-independent basis, Debye):
    X=             -0.2674    Y=             -0.1399    Z=             -1.3275  Tot=              1.3614
 Quadrupole moment (field-independent basis, Debye-Ang):
   XX=            -41.6220   YY=            -48.3830   ZZ=            -42.8696
   XY=             -1.5190   XZ=             -0.1606   YZ=             -1.7678

 Normal termination of Gaussian 09 at Fri Aug 10 06:32:45 2018.
