 Gaussian 09, Revision C.01,
 Gaussian 09:  EM64L-G09RevC.01 23-Sep-2011

 --------------------------------------
 #SP PBE1PBE/Def2TZVP geom=connectivity
 --------------------------------------

 99/5=1,9=1/99;
 -------------
 Structure: 85
 -------------
 Charge =  0 Multiplicity = 1

                         Standard orientation:
 ---------------------------------------------------------------------
 Center     Atomic      Atomic             Coordinates (Angstroms)
 Number     Number       Type             X           Y           Z
 ---------------------------------------------------------------------
      1          1           0       -3.227126   -1.228182   -0.383961
      2          6           0       -2.233160   -0.820471   -0.585088
      3          6           0       -1.619472   -0.192913    0.665768
      4          1           0       -2.347836   -0.088142   -1.389984
      5          1           0       -1.611904   -1.635197   -0.965184
      6          1           0       -2.257157    0.615837    1.039509
      7         14           0        0.091304    0.497004    0.421874
      8          1           0       -1.563118   -0.932937    1.471162
      9          8           0        0.142202    1.555073   -0.599966
     10          8           0        1.036436   -0.785184    0.020893
     11          1           0        0.630273    1.164578    1.634566
     12          1           0       -0.212272    1.350815   -1.467011
     13          6           0        2.429208   -0.701876   -0.171199
     14          1           0        2.811907   -1.707184   -0.355840
     15          1           0        2.932403   -0.295965    0.714685
     16          1           0        2.678006   -0.069224   -1.028486
 ---------------------------------------------------------------------

 SCF Done:  E(RPBE1PBE) =  -560.036173318     A.U. after   13 cycles

 The electronic state is 1-A.
 Alpha  occ. eigenvalues --  -66.22865 -19.21076 -19.19185 -10.26164 -10.21581
 Alpha  occ. eigenvalues --  -10.20115  -5.31236  -3.64819  -3.64597  -3.64438
 Alpha  occ. eigenvalues --   -1.07789  -1.02900  -0.77842  -0.70138  -0.63810
 Alpha  occ. eigenvalues --   -0.59487  -0.51421  -0.46717  -0.46482  -0.46039
 Alpha  occ. eigenvalues --   -0.43393  -0.41486  -0.40448  -0.38939  -0.36714
 Alpha  occ. eigenvalues --   -0.35803  -0.31466  -0.29976  -0.28957
 Alpha virt. eigenvalues --    0.02079   0.06026   0.06394   0.08318   0.09087
 Alpha virt. eigenvalues --    0.10427   0.11227   0.11886   0.12483   0.13539
 Alpha virt. eigenvalues --    0.14948   0.15413   0.16678   0.17291   0.19620

 Mulliken atomic charges:
              1
     1  H    0.130481
     2  C   -0.397609
     3  C   -0.323457
     4  H    0.100020
     5  H    0.143926
     6  H    0.117395
     7  Si   0.490375
     8  H    0.114972
     9  O   -0.417190
    10  O   -0.350813
    11  H   -0.082850
    12  H    0.327632
    13  C   -0.210815
    14  H    0.128032
    15  H    0.117487
    16  H    0.112416
 Sum of Mulliken atomic charges =   0.00000

 Dipole moment (field-independent basis, Debye):
    X=             -0.2638    Y=             -0.1219    Z=             -1.3526  Tot=              1.3834
 Quadrupole moment (field-independent basis, Debye-Ang):
   XX=            -41.6443   YY=            -48.3465   ZZ=            -42.8635
   XY=             -1.5115   XZ=             -0.1603   YZ=             -1.7744

 Normal termination of Gaussian 09 at Fri Aug 10 06:26:05 2018.
