 Gaussian 09, Revision C.01,
 Gaussian 09:  EM64L-G09RevC.01 23-Sep-2011

 --------------------------------------
 #SP PBE1PBE/Def2TZVP geom=connectivity
 --------------------------------------

 99/5=1,9=1/99;
 ------------
 Structure: 8
 ------------
 Charge =  0 Multiplicity = 1

                         Standard orientation:
 ---------------------------------------------------------------------
 Center     Atomic      Atomic             Coordinates (Angstroms)
 Number     Number       Type             X           Y           Z
 ---------------------------------------------------------------------
      1          1           0        3.224545   -1.248659    0.281015
      2          6           0        2.231517   -0.860005    0.520791
      3          6           0        1.617620   -0.116613   -0.664782
      4          1           0        2.348344   -0.206778    1.390826
      5          1           0        1.609219   -1.705818    0.823372
      6          1           0        2.256344    0.722627   -0.961618
      7         14           0       -0.091670    0.550172   -0.355024
      8          1           0        1.559102   -0.777550   -1.536107
      9          8           0       -0.134446    1.407315    0.644861
     10          8           0       -1.038650   -0.762456   -0.075201
     11          1           0       -0.630735    1.329691   -1.498930
     12          1           0        0.220582    1.121861    1.488432
     13          6           0       -2.431068   -0.695254    0.125572
     14          1           0       -2.815355   -1.712828    0.215356
     15          1           0       -2.934479   -0.207021   -0.717616
     16          1           0       -2.677837   -0.145582    1.038839
 ---------------------------------------------------------------------

 SCF Done:  E(RPBE1PBE) =  -559.939322472     A.U. after   12 cycles

 The electronic state is 1-A.
 Alpha  occ. eigenvalues --  -66.20049 -19.21237 -19.18509 -10.25957 -10.21489
 Alpha  occ. eigenvalues --  -10.19466  -5.29705  -3.63591  -3.62847  -3.62683
 Alpha  occ. eigenvalues --   -1.12094  -1.02469  -0.77568  -0.69852  -0.64039
 Alpha  occ. eigenvalues --   -0.61810  -0.51563  -0.47797  -0.46754  -0.45899
 Alpha  occ. eigenvalues --   -0.43775  -0.43017  -0.41671  -0.39400  -0.36166
 Alpha  occ. eigenvalues --   -0.35592  -0.30981  -0.29561  -0.28252
 Alpha virt. eigenvalues --    0.01688   0.06207   0.06702   0.08526   0.09139
 Alpha virt. eigenvalues --    0.10560   0.11451   0.12122   0.12577   0.13485
 Alpha virt. eigenvalues --    0.15306   0.15747   0.17176   0.17770   0.19821

 Mulliken atomic charges:
              1
     1  H    0.130914
     2  C   -0.402033
     3  C   -0.342811
     4  H    0.096042
     5  H    0.145500
     6  H    0.114139
     7  Si   0.444456
     8  H    0.112847
     9  O   -0.308184
    10  O   -0.365750
    11  H   -0.102104
    12  H    0.337153
    13  C   -0.211871
    14  H    0.127589
    15  H    0.117784
    16  H    0.106330
 Sum of Mulliken atomic charges =   0.00000

 Dipole moment (field-independent basis, Debye):
    X=              0.2512    Y=              0.1378    Z=              1.7949  Tot=              1.8177
 Quadrupole moment (field-independent basis, Debye-Ang):
   XX=            -41.9864   YY=            -47.7450   ZZ=            -42.8066
   XY=              1.4186   XZ=             -0.1381   YZ=              1.8626

 Normal termination of Gaussian 09 at Fri Aug 10 06:34:18 2018.
