 Gaussian 09, Revision C.01,
 Gaussian 09:  EM64L-G09RevC.01 23-Sep-2011

 --------------------------------------
 #SP PBE1PBE/Def2TZVP geom=connectivity
 --------------------------------------

 99/5=1,9=1/99;
 -------------
 Structure: 87
 -------------
 Charge =  0 Multiplicity = 1

                         Standard orientation:
 ---------------------------------------------------------------------
 Center     Atomic      Atomic             Coordinates (Angstroms)
 Number     Number       Type             X           Y           Z
 ---------------------------------------------------------------------
      1          1           0       -3.227293   -1.227370   -0.386697
      2          6           0       -2.233278   -0.819259   -0.586771
      3          6           0       -1.619594   -0.194839    0.665658
      4          1           0       -2.347845   -0.084940   -1.389867
      5          1           0       -1.612079   -1.633105   -0.968839
      6          1           0       -2.257222    0.613048    1.041356
      7         14           0        0.091259    0.495515    0.423548
      8          1           0       -1.563351   -0.936848    1.469230
      9          8           0        0.142754    1.558896   -0.598671
     10          8           0        1.036291   -0.785771    0.019460
     11          1           0        0.630229    1.160052    1.637906
     12          1           0       -0.211624    1.357098   -1.465280
     13          6           0        2.429080   -0.702122   -0.172357
     14          1           0        2.811694   -1.707008   -0.359453
     15          1           0        2.932269   -0.298439    0.714548
     16          1           0        2.677981   -0.067385   -1.028072
 ---------------------------------------------------------------------

 SCF Done:  E(RPBE1PBE) =  -560.037524194     A.U. after   13 cycles

 The electronic state is 1-A.
 Alpha  occ. eigenvalues --  -66.22933 -19.21057 -19.19203 -10.26170 -10.21585
 Alpha  occ. eigenvalues --  -10.20135  -5.31280  -3.64860  -3.64644  -3.64485
 Alpha  occ. eigenvalues --   -1.07698  -1.02911  -0.77851  -0.70147  -0.63815
 Alpha  occ. eigenvalues --   -0.59436  -0.51421  -0.46710  -0.46480  -0.46040
 Alpha  occ. eigenvalues --   -0.43394  -0.41436  -0.40449  -0.38887  -0.36729
 Alpha  occ. eigenvalues --   -0.35809  -0.31479  -0.29988  -0.28976
 Alpha virt. eigenvalues --    0.02098   0.06018   0.06389   0.08310   0.09088
 Alpha virt. eigenvalues --    0.10422   0.11219   0.11879   0.12480   0.13540
 Alpha virt. eigenvalues --    0.14930   0.15410   0.16664   0.17276   0.19614

 Mulliken atomic charges:
              1
     1  H    0.130471
     2  C   -0.397481
     3  C   -0.323011
     4  H    0.100162
     5  H    0.143889
     6  H    0.117491
     7  Si   0.491684
     8  H    0.115052
     9  O   -0.419857
    10  O   -0.350481
    11  H   -0.082385
    12  H    0.327157
    13  C   -0.210802
    14  H    0.128044
    15  H    0.117479
    16  H    0.112588
 Sum of Mulliken atomic charges =   0.00000

 Dipole moment (field-independent basis, Debye):
    X=             -0.2649    Y=             -0.1305    Z=             -1.3398  Tot=              1.3720
 Quadrupole moment (field-independent basis, Debye-Ang):
   XX=            -41.6331   YY=            -48.3629   ZZ=            -42.8675
   XY=             -1.5148   XZ=             -0.1619   YZ=             -1.7717

 Normal termination of Gaussian 09 at Fri Aug 10 06:29:25 2018.
