 Gaussian 09, Revision C.01,
 Gaussian 09:  EM64L-G09RevC.01 23-Sep-2011

 --------------------------------------
 #SP PBE1PBE/Def2TZVP geom=connectivity
 --------------------------------------

 99/5=1,9=1/99;
 -------------
 Structure: 81
 -------------
 Charge =  0 Multiplicity = 1

                         Standard orientation:
 ---------------------------------------------------------------------
 Center     Atomic      Atomic             Coordinates (Angstroms)
 Number     Number       Type             X           Y           Z
 ---------------------------------------------------------------------
      1          1           0       -3.227177   -1.229037   -0.378893
      2          6           0       -2.233219   -0.822272   -0.581967
      3          6           0       -1.619514   -0.188792    0.665893
      4          1           0       -2.347918   -0.093763   -1.390319
      5          1           0       -1.611961   -1.638782   -0.958213
      6          1           0       -2.257201    0.621712    1.035813
      7         14           0        0.091250    0.499981    0.418703
      8          1           0       -1.563138   -0.924994    1.474780
      9          8           0        0.142474    1.546828   -0.603011
     10          8           0        1.036388   -0.784082    0.023780
     11          1           0        0.630234    1.173295    1.628210
     12          1           0       -0.211942    1.338762   -1.468122
     13          6           0        2.429156   -0.701670   -0.168731
     14          1           0        2.811862   -1.707836   -0.348617
     15          1           0        2.932363   -0.291563    0.715211
     16          1           0        2.677931   -0.073081   -1.029009
 ---------------------------------------------------------------------

 SCF Done:  E(RPBE1PBE) =  -560.033356562     A.U. after   13 cycles

 The electronic state is 1-A.
 Alpha  occ. eigenvalues --  -66.22734 -19.21092 -19.19144 -10.26150 -10.21576
 Alpha  occ. eigenvalues --  -10.20083  -5.31152  -3.64744  -3.64508  -3.64348
 Alpha  occ. eigenvalues --   -1.08027  -1.02879  -0.77828  -0.70120  -0.63808
 Alpha  occ. eigenvalues --   -0.59644  -0.51424  -0.46733  -0.46485  -0.46040
 Alpha  occ. eigenvalues --   -0.43392  -0.41592  -0.40459  -0.39041  -0.36688
 Alpha  occ. eigenvalues --   -0.35794  -0.31440  -0.29952  -0.28922
 Alpha virt. eigenvalues --    0.02074   0.06041   0.06413   0.08329   0.09094
 Alpha virt. eigenvalues --    0.10438   0.11240   0.11902   0.12491   0.13539
 Alpha virt. eigenvalues --    0.14982   0.15424   0.16702   0.17324   0.19633

 Mulliken atomic charges:
              1
     1  H    0.130499
     2  C   -0.397813
     3  C   -0.324414
     4  H    0.099817
     5  H    0.144009
     6  H    0.117221
     7  Si   0.487727
     8  H    0.114874
     9  O   -0.411219
    10  O   -0.351505
    11  H   -0.083801
    12  H    0.327874
    13  C   -0.210820
    14  H    0.127996
    15  H    0.117474
    16  H    0.112081
 Sum of Mulliken atomic charges =   0.00000

 Dipole moment (field-independent basis, Debye):
    X=             -0.2645    Y=             -0.1037    Z=             -1.3733  Tot=              1.4024
 Quadrupole moment (field-independent basis, Debye-Ang):
   XX=            -41.6645   YY=            -48.3054   ZZ=            -42.8643
   XY=             -1.5063   XZ=             -0.1595   YZ=             -1.7758

 Normal termination of Gaussian 09 at Fri Aug 10 06:19:25 2018.
