 Gaussian 09, Revision C.01,
 Gaussian 09:  EM64L-G09RevC.01 23-Sep-2011

 --------------------------------------
 #SP PBE1PBE/Def2TZVP geom=connectivity
 --------------------------------------

 99/5=1,9=1/99;
 -------------
 Structure: 88
 -------------
 Charge =  0 Multiplicity = 1

                         Standard orientation:
 ---------------------------------------------------------------------
 Center     Atomic      Atomic             Coordinates (Angstroms)
 Number     Number       Type             X           Y           Z
 ---------------------------------------------------------------------
      1          1           0       -3.227435   -1.226873   -0.387895
      2          6           0       -2.233384   -0.818622   -0.587502
      3          6           0       -1.619697   -0.195577    0.665609
      4          1           0       -2.347870   -0.083443   -1.389823
      5          1           0       -1.612232   -1.632108   -0.970413
      6          1           0       -2.257279    0.611958    1.042143
      7         14           0        0.091215    0.494909    0.424290
      8          1           0       -1.563535   -0.938442    1.468396
      9          8           0        0.143249    1.560335   -0.598172
     10          8           0        1.036166   -0.786017    0.018874
     11          1           0        0.630192    1.158117    1.639371
     12          1           0       -0.211114    1.359482   -1.465007
     13          6           0        2.428969   -0.702265   -0.172807
     14          1           0        2.811515   -1.706980   -0.360956
     15          1           0        2.932157   -0.299561    0.714543
     16          1           0        2.677945   -0.066639   -1.027839
 ---------------------------------------------------------------------

 SCF Done:  E(RPBE1PBE) =  -560.038058663     A.U. after   13 cycles

 The electronic state is 1-A.
 Alpha  occ. eigenvalues --  -66.22960 -19.21051 -19.19209 -10.26171 -10.21586
 Alpha  occ. eigenvalues --  -10.20143  -5.31297  -3.64876  -3.64662  -3.64504
 Alpha  occ. eigenvalues --   -1.07653  -1.02912  -0.77855  -0.70149  -0.63817
 Alpha  occ. eigenvalues --   -0.59408  -0.51419  -0.46707  -0.46479  -0.46040
 Alpha  occ. eigenvalues --   -0.43394  -0.41414  -0.40449  -0.38864  -0.36735
 Alpha  occ. eigenvalues --   -0.35812  -0.31482  -0.29991  -0.28984
 Alpha virt. eigenvalues --    0.02101   0.06015   0.06385   0.08307   0.09087
 Alpha virt. eigenvalues --    0.10421   0.11216   0.11875   0.12480   0.13540
 Alpha virt. eigenvalues --    0.14924   0.15408   0.16657   0.17270   0.19611

 Mulliken atomic charges:
              1
     1  H    0.130469
     2  C   -0.397439
     3  C   -0.322815
     4  H    0.100217
     5  H    0.143878
     6  H    0.117528
     7  Si   0.492201
     8  H    0.115088
     9  O   -0.421043
    10  O   -0.350352
    11  H   -0.082178
    12  H    0.327070
    13  C   -0.210787
    14  H    0.128045
    15  H    0.117469
    16  H    0.112650
 Sum of Mulliken atomic charges =   0.00000

 Dipole moment (field-independent basis, Debye):
    X=             -0.2659    Y=             -0.1337    Z=             -1.3349  Tot=              1.3676
 Quadrupole moment (field-independent basis, Debye-Ang):
   XX=            -41.6298   YY=            -48.3697   ZZ=            -42.8672
   XY=             -1.5163   XZ=             -0.1624   YZ=             -1.7708

 Normal termination of Gaussian 09 at Fri Aug 10 06:31:05 2018.
