 Gaussian 09, Revision C.01,
 Gaussian 09:  EM64L-G09RevC.01 23-Sep-2011

 --------------------------------------
 #SP PBE1PBE/Def2TZVP geom=connectivity
 --------------------------------------

 99/5=1,9=1/99;
 -------------
 Structure: 86
 -------------
 Charge =  0 Multiplicity = 1

                         Standard orientation:
 ---------------------------------------------------------------------
 Center     Atomic      Atomic             Coordinates (Angstroms)
 Number     Number       Type             X           Y           Z
 ---------------------------------------------------------------------
      1          1           0       -3.227269   -1.227688   -0.385161
      2          6           0       -2.233266   -0.819836   -0.585821
      3          6           0       -1.619575   -0.193652    0.665722
      4          1           0       -2.347862   -0.086644   -1.389943
      5          1           0       -1.612056   -1.634203   -0.966761
      6          1           0       -2.257214    0.614747    1.040300
      7         14           0        0.091260    0.496400    0.422619
      8          1           0       -1.563302   -0.934534    1.470331
      9          8           0        0.142697    1.556510   -0.599472
     10          8           0        1.036312   -0.785430    0.020308
     11          1           0        0.630235    1.162647    1.636037
     12          1           0       -0.211763    1.353199   -1.466746
     13          6           0        2.429097   -0.702020   -0.171649
     14          1           0        2.811729   -1.707158   -0.357345
     15          1           0        2.932291   -0.297086    0.714682
     16          1           0        2.677970   -0.068475   -1.028255
 ---------------------------------------------------------------------

 SCF Done:  E(RPBE1PBE) =  -560.036727186     A.U. after   13 cycles

 The electronic state is 1-A.
 Alpha  occ. eigenvalues --  -66.22892 -19.21071 -19.19191 -10.26166 -10.21583
 Alpha  occ. eigenvalues --  -10.20123  -5.31253  -3.64835  -3.64616  -3.64457
 Alpha  occ. eigenvalues --   -1.07744  -1.02902  -0.77846  -0.70141  -0.63812
 Alpha  occ. eigenvalues --   -0.59459  -0.51420  -0.46713  -0.46480  -0.46039
 Alpha  occ. eigenvalues --   -0.43393  -0.41464  -0.40447  -0.38916  -0.36720
 Alpha  occ. eigenvalues --   -0.35806  -0.31470  -0.29980  -0.28964
 Alpha virt. eigenvalues --    0.02083   0.06023   0.06391   0.08315   0.09086
 Alpha virt. eigenvalues --    0.10426   0.11223   0.11883   0.12483   0.13539
 Alpha virt. eigenvalues --    0.14941   0.15411   0.16671   0.17284   0.19617

 Mulliken atomic charges:
              1
     1  H    0.130478
     2  C   -0.397567
     3  C   -0.323260
     4  H    0.100075
     5  H    0.143914
     6  H    0.117431
     7  Si   0.490894
     8  H    0.115008
     9  O   -0.418380
    10  O   -0.350683
    11  H   -0.082643
    12  H    0.327544
    13  C   -0.210800
    14  H    0.128033
    15  H    0.117477
    16  H    0.112478
 Sum of Mulliken atomic charges =   0.00000

 Dipole moment (field-independent basis, Debye):
    X=             -0.2647    Y=             -0.1251    Z=             -1.3476  Tot=              1.3791
 Quadrupole moment (field-independent basis, Debye-Ang):
   XX=            -41.6411   YY=            -48.3532   ZZ=            -42.8632
   XY=             -1.5129   XZ=             -0.1609   YZ=             -1.7736

 Normal termination of Gaussian 09 at Fri Aug 10 06:27:45 2018.
