 Gaussian 09, Revision C.01,
 Gaussian 09:  EM64L-G09RevC.01 23-Sep-2011

 --------------------------------------
 #SP PBE1PBE/Def2TZVP geom=connectivity
 --------------------------------------

 99/5=1,9=1/99;
 -------------
 Structure: 94
 -------------
 Charge =  0 Multiplicity = 1

                         Standard orientation:
 ---------------------------------------------------------------------
 Center     Atomic      Atomic             Coordinates (Angstroms)
 Number     Number       Type             X           Y           Z
 ---------------------------------------------------------------------
      1          1           0       -3.227553   -1.225146   -0.395657
      2          6           0       -2.233445   -0.815578   -0.592260
      3          6           0       -1.619775   -0.201617    0.665336
      4          1           0       -2.347799   -0.074641   -1.389285
      5          1           0       -1.612353   -1.626357   -0.980965
      6          1           0       -2.257297    0.603260    1.047620
      7         14           0        0.091226    0.490403    0.429098
      8          1           0       -1.563746   -0.950237    1.462768
      9          8           0        0.143535    1.572422   -0.593672
     10          8           0        1.036069   -0.787677    0.014552
     11          1           0        0.630192    1.144807    1.648948
     12          1           0       -0.210863    1.377557   -1.462907
     13          6           0        2.428892   -0.702699   -0.176431
     14          1           0        2.811345   -1.706077   -0.371768
     15          1           0        2.932064   -0.306434    0.713823
     16          1           0        2.677993   -0.060973   -1.026858
 ---------------------------------------------------------------------

 SCF Done:  E(RPBE1PBE) =  -560.041750077     A.U. after   13 cycles

 The electronic state is 1-A.
 Alpha  occ. eigenvalues --  -66.23154 -19.21019 -19.19267 -10.26191 -10.21595
 Alpha  occ. eigenvalues --  -10.20193  -5.31423  -3.64992  -3.64797  -3.64639
 Alpha  occ. eigenvalues --   -1.07311  -1.02939  -0.77878  -0.70175  -0.63824
 Alpha  occ. eigenvalues --   -0.59181  -0.51413  -0.46693  -0.46477  -0.46037
 Alpha  occ. eigenvalues --   -0.43399  -0.41254  -0.40450  -0.38693  -0.36774
 Alpha  occ. eigenvalues --   -0.35825  -0.31519  -0.30026  -0.29036
 Alpha virt. eigenvalues --    0.02114   0.05991   0.06358   0.08289   0.09078
 Alpha virt. eigenvalues --    0.10405   0.11195   0.11850   0.12469   0.13540
 Alpha virt. eigenvalues --    0.14870   0.15393   0.16619   0.17219   0.19591

 Mulliken atomic charges:
              1
     1  H    0.130443
     2  C   -0.397135
     3  C   -0.321405
     4  H    0.100549
     5  H    0.143763
     6  H    0.117793
     7  Si   0.496099
     8  H    0.115260
     9  O   -0.429806
    10  O   -0.349361
    11  H   -0.080754
    12  H    0.326608
    13  C   -0.210773
    14  H    0.128093
    15  H    0.117476
    16  H    0.113150
 Sum of Mulliken atomic charges =   0.00000

 Dipole moment (field-independent basis, Debye):
    X=             -0.2661    Y=             -0.1615    Z=             -1.3028  Tot=              1.3394
 Quadrupole moment (field-independent basis, Debye-Ang):
   XX=            -41.5997   YY=            -48.4305   ZZ=            -42.8663
   XY=             -1.5247   XZ=             -0.1645   YZ=             -1.7683

 Normal termination of Gaussian 09 at Fri Aug 10 06:42:38 2018.
