 Gaussian 09, Revision C.01,
 Gaussian 09:  EM64L-G09RevC.01 23-Sep-2011

 --------------------------------------
 #SP PBE1PBE/Def2TZVP geom=connectivity
 --------------------------------------

 99/5=1,9=1/99;
 -------------
 Structure: 91
 -------------
 Charge =  0 Multiplicity = 1

                         Standard orientation:
 ---------------------------------------------------------------------
 Center     Atomic      Atomic             Coordinates (Angstroms)
 Number     Number       Type             X           Y           Z
 ---------------------------------------------------------------------
      1          1           0       -3.227333   -1.226163   -0.391810
      2          6           0       -2.233290   -0.817150   -0.589886
      3          6           0       -1.619631   -0.198756    0.665541
      4          1           0       -2.347784   -0.078994   -1.389468
      5          1           0       -1.612114   -1.629191   -0.975813
      6          1           0       -2.257236    0.607359    1.045069
      7         14           0        0.091267    0.492663    0.426812
      8          1           0       -1.563461   -0.944601    1.465560
      9          8           0        0.142844    1.566181   -0.596079
     10          8           0        1.036253   -0.786724    0.016645
     11          1           0        0.630216    1.151360    1.644357
     12          1           0       -0.211504    1.368546   -1.463659
     13          6           0        2.429056   -0.702228   -0.174708
     14          1           0        2.811628   -1.706227   -0.366588
     15          1           0        2.932225   -0.302815    0.714140
     16          1           0        2.678027   -0.063420   -1.027367
 ---------------------------------------------------------------------

 SCF Done:  E(RPBE1PBE) =  -560.039965058     A.U. after   13 cycles

 The electronic state is 1-A.
 Alpha  occ. eigenvalues --  -66.23058 -19.21031 -19.19238 -10.26181 -10.21590
 Alpha  occ. eigenvalues --  -10.20166  -5.31361  -3.64935  -3.64730  -3.64572
 Alpha  occ. eigenvalues --   -1.07488  -1.02927  -0.77865  -0.70162  -0.63821
 Alpha  occ. eigenvalues --   -0.59305  -0.51417  -0.46699  -0.46478  -0.46038
 Alpha  occ. eigenvalues --   -0.43396  -0.41333  -0.40449  -0.38780  -0.36756
 Alpha  occ. eigenvalues --   -0.35818  -0.31501  -0.30008  -0.29010
 Alpha virt. eigenvalues --    0.02114   0.06002   0.06373   0.08298   0.09084
 Alpha virt. eigenvalues --    0.10414   0.11206   0.11862   0.12474   0.13541
 Alpha virt. eigenvalues --    0.14894   0.15401   0.16638   0.17249   0.19601

 Mulliken atomic charges:
              1
     1  H    0.130453
     2  C   -0.397288
     3  C   -0.322106
     4  H    0.100376
     5  H    0.143818
     6  H    0.117650
     7  Si   0.494205
     8  H    0.115154
     9  O   -0.425391
    10  O   -0.349845
    11  H   -0.081423
    12  H    0.326745
    13  C   -0.210792
    14  H    0.128070
    15  H    0.117468
    16  H    0.112907
 Sum of Mulliken atomic charges =   0.00000

 Dipole moment (field-independent basis, Debye):
    X=             -0.2652    Y=             -0.1467    Z=             -1.3176  Tot=              1.3520
 Quadrupole moment (field-independent basis, Debye-Ang):
   XX=            -41.6143   YY=            -48.3979   ZZ=            -42.8676
   XY=             -1.5192   XZ=             -0.1624   YZ=             -1.7680

 Normal termination of Gaussian 09 at Fri Aug 10 06:37:38 2018.
