 Gaussian 09, Revision C.01,
 Gaussian 09:  EM64L-G09RevC.01 23-Sep-2011

 --------------------------------------
 #SP PBE1PBE/Def2TZVP geom=connectivity
 --------------------------------------

 99/5=1,9=1/99;
 -------------
 Structure: 98
 -------------
 Charge =  0 Multiplicity = 1

                         Standard orientation:
 ---------------------------------------------------------------------
 Center     Atomic      Atomic             Coordinates (Angstroms)
 Number     Number       Type             X           Y           Z
 ---------------------------------------------------------------------
      1          1           0       -3.227595   -1.223928   -0.400715
      2          6           0       -2.233457   -0.813488   -0.595335
      3          6           0       -1.619816   -0.205499    0.665172
      4          1           0       -2.347735   -0.068794   -1.388862
      5          1           0       -1.612388   -1.622457   -0.987831
      6          1           0       -2.257315    0.597598    1.051219
      7         14           0        0.091231    0.487540    0.432283
      8          1           0       -1.563864   -0.957876    1.459067
      9          8           0        0.143630    1.579680   -0.591094
     10          8           0        1.036029   -0.788620    0.011757
     11          1           0        0.630173    1.136153    1.655232
     12          1           0       -0.210665    1.389216   -1.460298
     13          6           0        2.428866   -0.702813   -0.178756
     14          1           0        2.811277   -1.705278   -0.378807
     15          1           0        2.932015   -0.310779    0.713381
     16          1           0        2.678040   -0.057094   -1.026134
 ---------------------------------------------------------------------

 SCF Done:  E(RPBE1PBE) =  -560.043899079     A.U. after   13 cycles

 The electronic state is 1-A.
 Alpha  occ. eigenvalues --  -66.23277 -19.20984 -19.19303 -10.26203 -10.21601
 Alpha  occ. eigenvalues --  -10.20226  -5.31506  -3.65069  -3.64883  -3.64726
 Alpha  occ. eigenvalues --   -1.07124  -1.02956  -0.77893  -0.70191  -0.63833
 Alpha  occ. eigenvalues --   -0.59068  -0.51411  -0.46688  -0.46477  -0.46035
 Alpha  occ. eigenvalues --   -0.43402  -0.41153  -0.40458  -0.38582  -0.36801
 Alpha  occ. eigenvalues --   -0.35834  -0.31542  -0.30047  -0.29071
 Alpha virt. eigenvalues --    0.02139   0.05974   0.06345   0.08276   0.09076
 Alpha virt. eigenvalues --    0.10397   0.11181   0.11834   0.12462   0.13541
 Alpha virt. eigenvalues --    0.14832   0.15387   0.16594   0.17193   0.19578

 Mulliken atomic charges:
              1
     1  H    0.130425
     2  C   -0.396927
     3  C   -0.320546
     4  H    0.100784
     5  H    0.143692
     6  H    0.117958
     7  Si   0.498583
     8  H    0.115373
     9  O   -0.435020
    10  O   -0.348747
    11  H   -0.079828
    12  H    0.325963
    13  C   -0.210775
    14  H    0.128121
    15  H    0.117467
    16  H    0.113479
 Sum of Mulliken atomic charges =   0.00000

 Dipole moment (field-independent basis, Debye):
    X=             -0.2665    Y=             -0.1783    Z=             -1.2797  Tot=              1.3192
 Quadrupole moment (field-independent basis, Debye-Ang):
   XX=            -41.5788   YY=            -48.4645   ZZ=            -42.8698
   XY=             -1.5294   XZ=             -0.1655   YZ=             -1.7638

 Normal termination of Gaussian 09 at Fri Aug 10 06:49:18 2018.
