 Gaussian 09, Revision C.01,
 Gaussian 09:  EM64L-G09RevC.01 23-Sep-2011

 --------------------------------------
 #SP PBE1PBE/Def2TZVP geom=connectivity
 --------------------------------------

 99/5=1,9=1/99;
 ------------
 Structure: 9
 ------------
 Charge =  0 Multiplicity = 1

                         Standard orientation:
 ---------------------------------------------------------------------
 Center     Atomic      Atomic             Coordinates (Angstroms)
 Number     Number       Type             X           Y           Z
 ---------------------------------------------------------------------
      1          1           0        3.224679   -1.248288    0.282224
      2          6           0        2.231618   -0.859441    0.521554
      3          6           0        1.617716   -0.117347   -0.664829
      4          1           0        2.348375   -0.205284    1.390899
      5          1           0        1.609362   -1.704971    0.825011
      6          1           0        2.256398    0.721617   -0.962534
      7         14           0       -0.091626    0.549661   -0.355838
      8          1           0        1.559269   -0.779212   -1.535453
      9          8           0       -0.134914    1.408690    0.644596
     10          8           0       -1.038535   -0.762728   -0.074653
     11          1           0       -0.630700    1.327931   -1.500590
     12          1           0        0.220103    1.124154    1.488482
     13          6           0       -2.430964   -0.695399    0.126000
     14          1           0       -2.815190   -1.712901    0.216851
     15          1           0       -2.934376   -0.208093   -0.717723
     16          1           0       -2.677798   -0.144774    1.038674
 ---------------------------------------------------------------------

 SCF Done:  E(RPBE1PBE) =  -559.940990388     A.U. after   12 cycles

 The electronic state is 1-A.
 Alpha  occ. eigenvalues --  -66.20083 -19.21238 -19.18513 -10.25958 -10.21490
 Alpha  occ. eigenvalues --  -10.19474  -5.29720  -3.63600  -3.62866  -3.62702
 Alpha  occ. eigenvalues --   -1.12048  -1.02472  -0.77571  -0.69854  -0.64030
 Alpha  occ. eigenvalues --   -0.61792  -0.51558  -0.47776  -0.46747  -0.45901
 Alpha  occ. eigenvalues --   -0.43763  -0.43007  -0.41657  -0.39404  -0.36172
 Alpha  occ. eigenvalues --   -0.35595  -0.30985  -0.29564  -0.28261
 Alpha virt. eigenvalues --    0.01693   0.06206   0.06699   0.08523   0.09138
 Alpha virt. eigenvalues --    0.10560   0.11449   0.12120   0.12577   0.13486
 Alpha virt. eigenvalues --    0.15306   0.15742   0.17169   0.17767   0.19819

 Mulliken atomic charges:
              1
     1  H    0.130910
     2  C   -0.401986
     3  C   -0.342579
     4  H    0.096087
     5  H    0.145487
     6  H    0.114174
     7  Si   0.444817
     8  H    0.112880
     9  O   -0.309294
    10  O   -0.365579
    11  H   -0.101871
    12  H    0.337053
    13  C   -0.211841
    14  H    0.127589
    15  H    0.117770
    16  H    0.106383
 Sum of Mulliken atomic charges =   0.00000

 Dipole moment (field-independent basis, Debye):
    X=              0.2520    Y=              0.1361    Z=              1.7898  Tot=              1.8126
 Quadrupole moment (field-independent basis, Debye-Ang):
   XX=            -41.9841   YY=            -47.7497   ZZ=            -42.8069
   XY=              1.4195   XZ=             -0.1385   YZ=              1.8610

 Normal termination of Gaussian 09 at Fri Aug 10 06:52:31 2018.
