 Gaussian 09, Revision C.01,
 Gaussian 09:  EM64L-G09RevC.01 23-Sep-2011

 --------------------------------------
 #SP PBE1PBE/Def2TZVP geom=connectivity
 --------------------------------------

 99/5=1,9=1/99;
 -------------
 Structure: 92
 -------------
 Charge =  0 Multiplicity = 1

                         Standard orientation:
 ---------------------------------------------------------------------
 Center     Atomic      Atomic             Coordinates (Angstroms)
 Number     Number       Type             X           Y           Z
 ---------------------------------------------------------------------
      1          1           0       -3.227386   -1.225994   -0.392919
      2          6           0       -2.233326   -0.816821   -0.590586
      3          6           0       -1.619655   -0.199679    0.665451
      4          1           0       -2.347789   -0.077878   -1.389445
      5          1           0       -1.612176   -1.628505   -0.977305
      6          1           0       -2.257236    0.606084    1.045765
      7         14           0        0.091268    0.491915    0.427412
      8          1           0       -1.563517   -0.946310    1.464738
      9          8           0        0.142980    1.568572   -0.595072
     10          8           0        1.036213   -0.787102    0.015998
     11          1           0        0.630230    1.149398    1.645607
     12          1           0       -0.211441    1.371513   -1.463804
     13          6           0        2.429020   -0.702467   -0.175262
     14          1           0        2.811559   -1.706290   -0.368123
     15          1           0        2.932196   -0.303943    0.713981
     16          1           0        2.678020   -0.062831   -1.027292
 ---------------------------------------------------------------------

 SCF Done:  E(RPBE1PBE) =  -560.040554717     A.U. after   13 cycles

 The electronic state is 1-A.
 Alpha  occ. eigenvalues --  -66.23089 -19.21033 -19.19250 -10.26185 -10.21592
 Alpha  occ. eigenvalues --  -10.20175  -5.31380  -3.64952  -3.64751  -3.64593
 Alpha  occ. eigenvalues --   -1.07419  -1.02932  -0.77869  -0.70167  -0.63820
 Alpha  occ. eigenvalues --   -0.59251  -0.51416  -0.46697  -0.46478  -0.46038
 Alpha  occ. eigenvalues --   -0.43397  -0.41307  -0.40447  -0.38751  -0.36760
 Alpha  occ. eigenvalues --   -0.35820  -0.31508  -0.30016  -0.29018
 Alpha virt. eigenvalues --    0.02106   0.05999   0.06367   0.08296   0.09080
 Alpha virt. eigenvalues --    0.10410   0.11202   0.11859   0.12472   0.13540
 Alpha virt. eigenvalues --    0.14888   0.15397   0.16633   0.17236   0.19598

 Mulliken atomic charges:
              1
     1  H    0.130451
     2  C   -0.397241
     3  C   -0.321873
     4  H    0.100423
     5  H    0.143797
     6  H    0.117702
     7  Si   0.494812
     8  H    0.115188
     9  O   -0.426937
    10  O   -0.349683
    11  H   -0.081238
    12  H    0.326835
    13  C   -0.210788
    14  H    0.128082
    15  H    0.117484
    16  H    0.112986
 Sum of Mulliken atomic charges =   0.00000

 Dipole moment (field-independent basis, Debye):
    X=             -0.2651    Y=             -0.1525    Z=             -1.3143  Tot=              1.3494
 Quadrupole moment (field-independent basis, Debye-Ang):
   XX=            -41.6094   YY=            -48.4117   ZZ=            -42.8661
   XY=             -1.5215   XZ=             -0.1634   YZ=             -1.7698

 Normal termination of Gaussian 09 at Fri Aug 10 06:39:18 2018.
