 Gaussian 09, Revision C.01,
 Gaussian 09:  EM64L-G09RevC.01 23-Sep-2011

 --------------------------------------
 #SP PBE1PBE/Def2TZVP geom=connectivity
 --------------------------------------

 99/5=1,9=1/99;
 -------------
 Structure: 97
 -------------
 Charge =  0 Multiplicity = 1

                         Standard orientation:
 ---------------------------------------------------------------------
 Center     Atomic      Atomic             Coordinates (Angstroms)
 Number     Number       Type             X           Y           Z
 ---------------------------------------------------------------------
      1          1           0       -3.227838   -1.223848   -0.399485
      2          6           0       -2.233652   -0.813758   -0.594595
      3          6           0       -1.619977   -0.204257    0.665166
      4          1           0       -2.347831   -0.070045   -1.389055
      5          1           0       -1.612659   -1.623283   -0.986063
      6          1           0       -2.257400    0.599390    1.050192
      7         14           0        0.091150    0.488308    0.431452
      8          1           0       -1.564124   -0.955646    1.460003
      9          8           0        0.144580    1.577675   -0.591876
     10          8           0        1.035822   -0.788477    0.012547
     11          1           0        0.630130    1.138394    1.653602
     12          1           0       -0.210623    1.385785   -1.460671
     13          6           0        2.428673   -0.703058   -0.178039
     14          1           0        2.810982   -1.705813   -0.376825
     15          1           0        2.931842   -0.309960    0.713620
     16          1           0        2.677937   -0.058426   -1.026218
 ---------------------------------------------------------------------

 SCF Done:  E(RPBE1PBE) =  -560.043346056     A.U. after   13 cycles

 The electronic state is 1-A.
 Alpha  occ. eigenvalues --  -66.23245 -19.20994 -19.19291 -10.26198 -10.21602
 Alpha  occ. eigenvalues --  -10.20222  -5.31484  -3.65049  -3.64861  -3.64704
 Alpha  occ. eigenvalues --   -1.07175  -1.02949  -0.77892  -0.70185  -0.63832
 Alpha  occ. eigenvalues --   -0.59094  -0.51410  -0.46688  -0.46476  -0.46039
 Alpha  occ. eigenvalues --   -0.43403  -0.41181  -0.40459  -0.38610  -0.36794
 Alpha  occ. eigenvalues --   -0.35835  -0.31534  -0.30042  -0.29064
 Alpha virt. eigenvalues --    0.02131   0.05979   0.06349   0.08278   0.09077
 Alpha virt. eigenvalues --    0.10399   0.11182   0.11838   0.12464   0.13540
 Alpha virt. eigenvalues --    0.14844   0.15389   0.16598   0.17199   0.19581

 Mulliken atomic charges:
              1
     1  H    0.130440
     2  C   -0.396968
     3  C   -0.320811
     4  H    0.100731
     5  H    0.143734
     6  H    0.117938
     7  Si   0.497807
     8  H    0.115386
     9  O   -0.433577
    10  O   -0.348915
    11  H   -0.080088
    12  H    0.326108
    13  C   -0.210752
    14  H    0.128105
    15  H    0.117457
    16  H    0.113404
 Sum of Mulliken atomic charges =   0.00000

 Dipole moment (field-independent basis, Debye):
    X=             -0.2697    Y=             -0.1746    Z=             -1.2846  Tot=              1.3241
 Quadrupole moment (field-independent basis, Debye-Ang):
   XX=            -41.5834   YY=            -48.4562   ZZ=            -42.8715
   XY=             -1.5307   XZ=             -0.1643   YZ=             -1.7627

 Normal termination of Gaussian 09 at Fri Aug 10 06:47:38 2018.
