 Gaussian 09, Revision C.01,
 Gaussian 09:  EM64L-G09RevC.01 23-Sep-2011

 --------------------------------------
 #SP PBE1PBE/Def2TZVP geom=connectivity
 --------------------------------------

 99/5=1,9=1/99;
 -------------
 Structure: 93
 -------------
 Charge =  0 Multiplicity = 1

                         Standard orientation:
 ---------------------------------------------------------------------
 Center     Atomic      Atomic             Coordinates (Angstroms)
 Number     Number       Type             X           Y           Z
 ---------------------------------------------------------------------
      1          1           0       -3.227529   -1.225490   -0.394114
      2          6           0       -2.233433   -0.816181   -0.591314
      3          6           0       -1.619759   -0.200415    0.665397
      4          1           0       -2.347814   -0.076384   -1.389393
      5          1           0       -1.612329   -1.627501   -0.978871
      6          1           0       -2.257293    0.604992    1.046542
      7         14           0        0.091224    0.491304    0.428148
      8          1           0       -1.563702   -0.947896    1.463895
      9          8           0        0.143477    1.570011   -0.594562
     10          8           0        1.036089   -0.787346    0.015412
     11          1           0        0.630193    1.147458    1.647056
     12          1           0       -0.210929    1.373899   -1.463514
     13          6           0        2.428908   -0.702610   -0.175711
     14          1           0        2.811379   -1.706257   -0.369623
     15          1           0        2.932083   -0.305066    0.713970
     16          1           0        2.677983   -0.062092   -1.027055
 ---------------------------------------------------------------------

 SCF Done:  E(RPBE1PBE) =  -560.041044442     A.U. after   13 cycles

 The electronic state is 1-A.
 Alpha  occ. eigenvalues --  -66.23115 -19.21027 -19.19256 -10.26187 -10.21593
 Alpha  occ. eigenvalues --  -10.20183  -5.31398  -3.64968  -3.64770  -3.64612
 Alpha  occ. eigenvalues --   -1.07375  -1.02933  -0.77873  -0.70169  -0.63822
 Alpha  occ. eigenvalues --   -0.59223  -0.51414  -0.46695  -0.46477  -0.46038
 Alpha  occ. eigenvalues --   -0.43397  -0.41285  -0.40449  -0.38727  -0.36766
 Alpha  occ. eigenvalues --   -0.35823  -0.31512  -0.30019  -0.29026
 Alpha virt. eigenvalues --    0.02109   0.05996   0.06363   0.08293   0.09079
 Alpha virt. eigenvalues --    0.10409   0.11199   0.11855   0.12471   0.13540
 Alpha virt. eigenvalues --    0.14881   0.15395   0.16626   0.17229   0.19595

 Mulliken atomic charges:
              1
     1  H    0.130449
     2  C   -0.397200
     3  C   -0.321679
     4  H    0.100479
     5  H    0.143786
     6  H    0.117739
     7  Si   0.495324
     8  H    0.115224
     9  O   -0.428111
    10  O   -0.349557
    11  H   -0.081033
    12  H    0.326749
    13  C   -0.210774
    14  H    0.128083
    15  H    0.117474
    16  H    0.113048
 Sum of Mulliken atomic charges =   0.00000

 Dipole moment (field-independent basis, Debye):
    X=             -0.2661    Y=             -0.1559    Z=             -1.3094  Tot=              1.3452
 Quadrupole moment (field-independent basis, Debye-Ang):
   XX=            -41.6061   YY=            -48.4186   ZZ=            -42.8658
   XY=             -1.5230   XZ=             -0.1640   YZ=             -1.7690

 Normal termination of Gaussian 09 at Fri Aug 10 06:40:58 2018.
