 Gaussian 09, Revision C.01,
 Gaussian 09:  EM64L-G09RevC.01 23-Sep-2011

 --------------------------------------
 #SP PBE1PBE/Def2TZVP geom=connectivity
 --------------------------------------

 99/5=1,9=1/99;
 -------------
 Structure: 96
 -------------
 Charge =  0 Multiplicity = 1

                         Standard orientation:
 ---------------------------------------------------------------------
 Center     Atomic      Atomic             Coordinates (Angstroms)
 Number     Number       Type             X           Y           Z
 ---------------------------------------------------------------------
      1          1           0       -3.227694   -1.224340   -0.398316
      2          6           0       -2.233545   -0.814374   -0.593879
      3          6           0       -1.619870   -0.203544    0.665238
      4          1           0       -2.347808   -0.071479   -1.389093
      5          1           0       -1.612506   -1.624251   -0.984545
      6          1           0       -2.257339    0.600447    1.049468
      7         14           0        0.091197    0.488910    0.430756
      8          1           0       -1.563932   -0.954118    1.460837
      9          8           0        0.144080    1.576262   -0.592318
     10          8           0        1.035949   -0.788230    0.013117
     11          1           0        0.630173    1.140281    1.652224
     12          1           0       -0.211212    1.383179   -1.461862
     13          6           0        2.428787   -0.702901   -0.177606
     14          1           0        2.811163   -1.705829   -0.375385
     15          1           0        2.931959   -0.308858    0.713634
     16          1           0        2.677972   -0.059115   -1.026451
 ---------------------------------------------------------------------

 SCF Done:  E(RPBE1PBE) =  -560.042893247     A.U. after   13 cycles

 The electronic state is 1-A.
 Alpha  occ. eigenvalues --  -66.23218 -19.21007 -19.19285 -10.26196 -10.21600
 Alpha  occ. eigenvalues --  -10.20213  -5.31466  -3.65032  -3.64842  -3.64684
 Alpha  occ. eigenvalues --   -1.07200  -1.02945  -0.77888  -0.70182  -0.63829
 Alpha  occ. eigenvalues --   -0.59104  -0.51410  -0.46689  -0.46476  -0.46038
 Alpha  occ. eigenvalues --   -0.43401  -0.41200  -0.40456  -0.38632  -0.36788
 Alpha  occ. eigenvalues --   -0.35832  -0.31530  -0.30037  -0.29056
 Alpha virt. eigenvalues --    0.02118   0.05982   0.06350   0.08282   0.09075
 Alpha virt. eigenvalues --    0.10400   0.11186   0.11841   0.12465   0.13539
 Alpha virt. eigenvalues --    0.14852   0.15389   0.16604   0.17204   0.19583

 Mulliken atomic charges:
              1
     1  H    0.130443
     2  C   -0.397028
     3  C   -0.320972
     4  H    0.100658
     5  H    0.143746
     6  H    0.117896
     7  Si   0.497298
     8  H    0.115343
     9  O   -0.432651
    10  O   -0.349037
    11  H   -0.080269
    12  H    0.326433
    13  C   -0.210760
    14  H    0.128102
    15  H    0.117466
    16  H    0.113334
 Sum of Mulliken atomic charges =   0.00000

 Dipole moment (field-independent basis, Debye):
    X=             -0.2686    Y=             -0.1712    Z=             -1.2906  Tot=              1.3293
 Quadrupole moment (field-independent basis, Debye-Ang):
   XX=            -41.5885   YY=            -48.4511   ZZ=            -42.8683
   XY=             -1.5290   XZ=             -0.1632   YZ=             -1.7647

 Normal termination of Gaussian 09 at Fri Aug 10 06:45:57 2018.
