 Gaussian 09, Revision C.01,
 Gaussian 09:  EM64L-G09RevC.01 23-Sep-2011

 --------------------------------------
 #SP PBE1PBE/Def2TZVP geom=connectivity
 --------------------------------------

 99/5=1,9=1/99;
 -------------
 Structure: 99
 -------------
 Charge =  0 Multiplicity = 1

                         Standard orientation:
 ---------------------------------------------------------------------
 Center     Atomic      Atomic             Coordinates (Angstroms)
 Number     Number       Type             X           Y           Z
 ---------------------------------------------------------------------
      1          1           0       -3.227619   -1.223578   -0.402249
      2          6           0       -2.233470   -0.812884   -0.596273
      3          6           0       -1.619833   -0.206697    0.665104
      4          1           0       -2.347721   -0.067062   -1.388744
      5          1           0       -1.612413   -1.621308   -0.989908
      6          1           0       -2.257320    0.595866    1.052281
      7         14           0        0.091233    0.486635    0.433222
      8          1           0       -1.563907   -0.960200    1.457931
      9          8           0        0.143688    1.582091   -0.590191
     10          8           0        1.036008   -0.788948    0.010898
     11          1           0        0.630172    1.133501    1.657097
     12          1           0       -0.210599    1.392867   -1.459670
     13          6           0        2.428850   -0.702901   -0.179474
     14          1           0        2.811242   -1.705089   -0.380941
     15          1           0        2.931996   -0.312143    0.713226
     16          1           0        2.678050   -0.055986   -1.025931
 ---------------------------------------------------------------------

 SCF Done:  E(RPBE1PBE) =  -560.044539993     A.U. after   13 cycles

 The electronic state is 1-A.
 Alpha  occ. eigenvalues --  -66.23315 -19.20976 -19.19315 -10.26207 -10.21603
 Alpha  occ. eigenvalues --  -10.20236  -5.31531  -3.65093  -3.64910  -3.64753
 Alpha  occ. eigenvalues --   -1.07061  -1.02961  -0.77898  -0.70196  -0.63835
 Alpha  occ. eigenvalues --   -0.59027  -0.51410  -0.46687  -0.46477  -0.46034
 Alpha  occ. eigenvalues --   -0.43404  -0.41122  -0.40460  -0.38546  -0.36809
 Alpha  occ. eigenvalues --   -0.35837  -0.31550  -0.30055  -0.29082
 Alpha virt. eigenvalues --    0.02143   0.05969   0.06341   0.08272   0.09075
 Alpha virt. eigenvalues --    0.10393   0.11177   0.11828   0.12460   0.13541
 Alpha virt. eigenvalues --    0.14821   0.15384   0.16586   0.17183   0.19574

 Mulliken atomic charges:
              1
     1  H    0.130419
     2  C   -0.396864
     3  C   -0.320276
     4  H    0.100855
     5  H    0.143669
     6  H    0.118012
     7  Si   0.499348
     8  H    0.115409
     9  O   -0.436696
    10  O   -0.348556
    11  H   -0.079552
    12  H    0.325825
    13  C   -0.210775
    14  H    0.128132
    15  H    0.117469
    16  H    0.113581
 Sum of Mulliken atomic charges =   0.00000

 Dipole moment (field-independent basis, Debye):
    X=             -0.2666    Y=             -0.1840    Z=             -1.2731  Tot=              1.3137
 Quadrupole moment (field-independent basis, Debye-Ang):
   XX=            -41.5724   YY=            -48.4766   ZZ=            -42.8702
   XY=             -1.5312   XZ=             -0.1660   YZ=             -1.7632

 Normal termination of Gaussian 09 at Fri Aug 10 06:50:58 2018.
