 Gaussian 09, Revision C.01,
 Gaussian 09:  EM64L-G09RevC.01 23-Sep-2011

 --------------------------------------
 #SP PBE1PBE/Def2TZVP geom=connectivity
 --------------------------------------

 99/5=1,9=1/99;
 -------------
 Structure: 90
 -------------
 Charge =  0 Multiplicity = 1

                         Standard orientation:
 ---------------------------------------------------------------------
 Center     Atomic      Atomic             Coordinates (Angstroms)
 Number     Number       Type             X           Y           Z
 ---------------------------------------------------------------------
      1          1           0       -3.227575   -1.226081   -0.390571
      2          6           0       -2.233483   -0.817422   -0.589137
      3          6           0       -1.619791   -0.197512    0.665526
      4          1           0       -2.347880   -0.080261   -1.389651
      5          1           0       -1.612384   -1.630013   -0.974026
      6          1           0       -2.257321    0.609147    1.044022
      7         14           0        0.091186    0.493426    0.425969
      8          1           0       -1.563719   -0.942354    1.466484
      9          8           0        0.143792    1.564175   -0.596846
     10          8           0        1.036048   -0.786576    0.017437
     11          1           0        0.630173    1.153598    1.642697
     12          1           0       -0.211465    1.365111   -1.464004
     13          6           0        2.428864   -0.702468   -0.173987
     14          1           0        2.811335   -1.706748   -0.364593
     15          1           0        2.932052   -0.301989    0.714370
     16          1           0        2.677923   -0.064760   -1.027443
 ---------------------------------------------------------------------

 SCF Done:  E(RPBE1PBE) =  -560.039336776     A.U. after   13 cycles

 The electronic state is 1-A.
 Alpha  occ. eigenvalues --  -66.23025 -19.21040 -19.19226 -10.26176 -10.21591
 Alpha  occ. eigenvalues --  -10.20162  -5.31339  -3.64915  -3.64708  -3.64550
 Alpha  occ. eigenvalues --   -1.07540  -1.02920  -0.77865  -0.70156  -0.63821
 Alpha  occ. eigenvalues --   -0.59330  -0.51416  -0.46701  -0.46477  -0.46042
 Alpha  occ. eigenvalues --   -0.43396  -0.41361  -0.40452  -0.38807  -0.36749
 Alpha  occ. eigenvalues --   -0.35818  -0.31493  -0.30002  -0.29003
 Alpha virt. eigenvalues --    0.02106   0.06007   0.06376   0.08300   0.09085
 Alpha virt. eigenvalues --    0.10416   0.11207   0.11867   0.12476   0.13540
 Alpha virt. eigenvalues --    0.14906   0.15403   0.16642   0.17255   0.19604

 Mulliken atomic charges:
              1
     1  H    0.130469
     2  C   -0.397331
     3  C   -0.322375
     4  H    0.100324
     5  H    0.143860
     6  H    0.117631
     7  Si   0.493418
     8  H    0.115169
     9  O   -0.423929
    10  O   -0.350018
    11  H   -0.081686
    12  H    0.326894
    13  C   -0.210771
    14  H    0.128053
    15  H    0.117458
    16  H    0.112833
 Sum of Mulliken atomic charges =   0.00000

 Dipole moment (field-independent basis, Debye):
    X=             -0.2684    Y=             -0.1432    Z=             -1.3226  Tot=              1.3571
 Quadrupole moment (field-independent basis, Debye-Ang):
   XX=            -41.6188   YY=            -48.3898   ZZ=            -42.8693
   XY=             -1.5205   XZ=             -0.1612   YZ=             -1.7670

 Normal termination of Gaussian 09 at Fri Aug 10 06:35:58 2018.
