 Gaussian 09, Revision C.01,
 Gaussian 09:  EM64L-G09RevC.01 23-Sep-2011

 --------------------------------------
 #SP PBE1PBE/Def2TZVP geom=connectivity
 --------------------------------------

 99/5=1,9=1/99;
 -------------
 Structure: 95
 -------------
 Charge =  0 Multiplicity = 1

                         Standard orientation:
 ---------------------------------------------------------------------
 Center     Atomic      Atomic             Coordinates (Angstroms)
 Number     Number       Type             X           Y           Z
 ---------------------------------------------------------------------
      1          1           0       -3.227696   -1.224639   -0.396850
      2          6           0       -2.233552   -0.814936   -0.592985
      3          6           0       -1.619879   -0.202352    0.665280
      4          1           0       -2.347824   -0.073148   -1.389230
      5          1           0       -1.612507   -1.625350   -0.982527
      6          1           0       -2.257354    0.602167    1.048394
      7         14           0        0.091181    0.489791    0.429831
      8          1           0       -1.563932   -0.951820    1.461921
      9          8           0        0.144033    1.573862   -0.593157
     10          8           0        1.035943   -0.787920    0.013965
     11          1           0        0.630154    1.142864    1.650391
     12          1           0       -0.210350    1.379943   -1.462610
     13          6           0        2.428780   -0.702843   -0.176881
     14          1           0        2.811165   -1.706042   -0.373267
     15          1           0        2.931951   -0.307558    0.713809
     16          1           0        2.677957   -0.060236   -1.026620
 ---------------------------------------------------------------------

 SCF Done:  E(RPBE1PBE) =  -560.042221678     A.U. after   13 cycles

 The electronic state is 1-A.
 Alpha  occ. eigenvalues --  -66.23180 -19.21013 -19.19273 -10.26192 -10.21597
 Alpha  occ. eigenvalues --  -10.20201  -5.31440  -3.65008  -3.64815  -3.64657
 Alpha  occ. eigenvalues --   -1.07267  -1.02940  -0.77882  -0.70177  -0.63826
 Alpha  occ. eigenvalues --   -0.59154  -0.51411  -0.46691  -0.46476  -0.46037
 Alpha  occ. eigenvalues --   -0.43399  -0.41231  -0.40452  -0.38668  -0.36780
 Alpha  occ. eigenvalues --   -0.35828  -0.31523  -0.30030  -0.29044
 Alpha virt. eigenvalues --    0.02117   0.05987   0.06355   0.08286   0.09077
 Alpha virt. eigenvalues --    0.10404   0.11191   0.11847   0.12468   0.13540
 Alpha virt. eigenvalues --    0.14863   0.15391   0.16612   0.17213   0.19588

 Mulliken atomic charges:
              1
     1  H    0.130441
     2  C   -0.397095
     3  C   -0.321213
     4  H    0.100605
     5  H    0.143752
     6  H    0.117830
     7  Si   0.496609
     8  H    0.115297
     9  O   -0.430976
    10  O   -0.349237
    11  H   -0.080550
    12  H    0.326523
    13  C   -0.210759
    14  H    0.128095
    15  H    0.117467
    16  H    0.113212
 Sum of Mulliken atomic charges =   0.00000

 Dipole moment (field-independent basis, Debye):
    X=             -0.2671    Y=             -0.1648    Z=             -1.2979  Tot=              1.3353
 Quadrupole moment (field-independent basis, Debye-Ang):
   XX=            -41.5964   YY=            -48.4375   ZZ=            -42.8659
   XY=             -1.5262   XZ=             -0.1651   YZ=             -1.7675

 Normal termination of Gaussian 09 at Fri Aug 10 06:44:18 2018.
