 Gaussian 09, Revision C.01,
 Gaussian 09:  EM64L-G09RevC.01 23-Sep-2011

 --------------------------------------
 #SP PBE1PBE/Def2TZVP geom=connectivity
 --------------------------------------

 99/5=1,9=1/99;
 ------------
 Structure: 0
 ------------
 Charge =  0 Multiplicity = 1

                         Standard orientation:
 ---------------------------------------------------------------------
 Center     Atomic      Atomic             Coordinates (Angstroms)
 Number     Number       Type             X           Y           Z
 ---------------------------------------------------------------------
      1          1           0       -3.022208   -1.477934   -0.306808
      2          6           0       -2.075945   -0.976496   -0.525431
      3          6           0       -1.471479   -0.345589    0.728228
      4          1           0       -2.284766   -0.226832   -1.294659
      5          1           0       -1.401277   -1.717896   -0.960585
      6          1           0       -2.162227    0.388654    1.157363
      7         14           0        0.162156    0.501777    0.453579
      8          1           0       -1.320029   -1.108089    1.499672
      9          8           0       -0.538762    1.521982   -0.635196
     10          8           0        1.199083   -0.675462   -0.033203
     11          1           0        0.687291    1.167371    1.673407
     12          1           0       -1.023770    1.128679   -1.361775
     13          6           0        2.570904   -0.461992   -0.270246
     14          1           0        3.032193   -1.421685   -0.509821
     15          1           0        3.070609   -0.047465    0.613622
     16          1           0        2.730563    0.222616   -1.108644
 ---------------------------------------------------------------------

 SCF Done:  E(RPBE1PBE) =  -560.037677860     A.U. after   13 cycles

 The electronic state is 1-A.
 Alpha  occ. eigenvalues --  -66.25856 -19.21214 -19.19203 -10.27244 -10.21433
 Alpha  occ. eigenvalues --  -10.19105  -5.33501  -3.67023  -3.66957  -3.66725
 Alpha  occ. eigenvalues --   -1.05122  -1.02112  -0.77309  -0.71309  -0.63524
 Alpha  occ. eigenvalues --   -0.56268  -0.51856  -0.47633  -0.47263  -0.45851
 Alpha  occ. eigenvalues --   -0.43492  -0.41526  -0.38157  -0.37004  -0.36334
 Alpha  occ. eigenvalues --   -0.34819  -0.32692  -0.31044  -0.27588
 Alpha virt. eigenvalues --    0.01670   0.04749   0.05669   0.07726   0.09060
 Alpha virt. eigenvalues --    0.09254   0.11044   0.11653   0.11964   0.12974
 Alpha virt. eigenvalues --    0.13714   0.15056   0.16831   0.18313   0.20395

 Mulliken atomic charges:
              1
     1  H    0.129073
     2  C   -0.391269
     3  C   -0.308307
     4  H    0.083191
     5  H    0.142676
     6  H    0.115740
     7  Si   0.551763
     8  H    0.094707
     9  O   -0.517335
    10  O   -0.330452
    11  H   -0.037189
    12  H    0.313286
    13  C   -0.224086
    14  H    0.132560
    15  H    0.120471
    16  H    0.125171
 Sum of Mulliken atomic charges =   0.00000

 Dipole moment (field-independent basis, Debye):
    X=              0.8870    Y=             -0.5460    Z=             -0.4851  Tot=              1.1490
 Quadrupole moment (field-independent basis, Debye-Ang):
   XX=            -40.1630   YY=            -49.6239   ZZ=            -43.6234
   XY=              0.3261   XZ=              0.7587   YZ=              0.3843

 Normal termination of Gaussian 09 at Wed Aug  8 10:00:55 2018.
