 Gaussian 09, Revision C.01,
 Gaussian 09:  EM64L-G09RevC.01 23-Sep-2011

 --------------------------------------
 #SP PBE1PBE/Def2TZVP geom=connectivity
 --------------------------------------

 99/5=1,9=1/99;
 -------------
 Structure: 13
 -------------
 Charge =  0 Multiplicity = 1

                         Standard orientation:
 ---------------------------------------------------------------------
 Center     Atomic      Atomic             Coordinates (Angstroms)
 Number     Number       Type             X           Y           Z
 ---------------------------------------------------------------------
      1          1           0       -3.056920   -1.438008   -0.362110
      2          6           0       -2.103074   -0.942944   -0.561459
      3          6           0       -1.497575   -0.355698    0.712745
      4          1           0       -2.297921   -0.169152   -1.310188
      5          1           0       -1.435572   -1.680449   -1.013938
      6          1           0       -2.181213    0.375034    1.158920
      7         14           0        0.148339    0.477764    0.470808
      8          1           0       -1.360270   -1.141635    1.463024
      9          8           0       -0.420892    1.589901   -0.603988
     10          8           0        1.172746   -0.698625   -0.043748
     11          1           0        0.675152    1.101670    1.711764
     12          1           0       -0.890937    1.262881   -1.373349
     13          6           0        2.548507   -0.496408   -0.267453
     14          1           0        2.998746   -1.454859   -0.531745
     15          1           0        3.048544   -0.113605    0.630426
     16          1           0        2.721655    0.209521   -1.085239
 ---------------------------------------------------------------------

 SCF Done:  E(RPBE1PBE) =  -560.046676387     A.U. after   13 cycles

 The electronic state is 1-A.
 Alpha  occ. eigenvalues --  -66.25728 -19.20993 -19.19544 -10.27104 -10.21447
 Alpha  occ. eigenvalues --  -10.19448  -5.33377  -3.66896  -3.66827  -3.66614
 Alpha  occ. eigenvalues --   -1.04969  -1.02207  -0.77465  -0.71162  -0.63568
 Alpha  occ. eigenvalues --   -0.56380  -0.51744  -0.47482  -0.47134  -0.45785
 Alpha  occ. eigenvalues --   -0.43498  -0.41375  -0.38340  -0.37133  -0.36388
 Alpha  occ. eigenvalues --   -0.35010  -0.32576  -0.30906  -0.28254
 Alpha virt. eigenvalues --    0.02026   0.04894   0.05759   0.07869   0.09034
 Alpha virt. eigenvalues --    0.09397   0.11047   0.11695   0.11886   0.13006
 Alpha virt. eigenvalues --    0.13639   0.15093   0.16729   0.18189   0.20195

 Mulliken atomic charges:
              1
     1  H    0.129144
     2  C   -0.393596
     3  C   -0.306759
     4  H    0.087440
     5  H    0.142407
     6  H    0.116672
     7  Si   0.551125
     8  H    0.100054
     9  O   -0.523292
    10  O   -0.331602
    11  H   -0.043142
    12  H    0.317534
    13  C   -0.222548
    14  H    0.131815
    15  H    0.120007
    16  H    0.124743
 Sum of Mulliken atomic charges =   0.00000

 Dipole moment (field-independent basis, Debye):
    X=              0.6570    Y=             -0.5753    Z=             -0.5604  Tot=              1.0376
 Quadrupole moment (field-independent basis, Debye-Ang):
   XX=            -40.3203   YY=            -49.7122   ZZ=            -43.3649
   XY=             -0.1206   XZ=              0.6822   YZ=             -0.1402

 Normal termination of Gaussian 09 at Wed Aug  8 12:32:57 2018.
