 Gaussian 09, Revision C.01,
 Gaussian 09:  EM64L-G09RevC.01 23-Sep-2011

 --------------------------------------
 #SP PBE1PBE/Def2TZVP geom=connectivity
 --------------------------------------

 99/5=1,9=1/99;
 --------------
 Structure: 114
 --------------
 Charge =  0 Multiplicity = 1

                         Standard orientation:
 ---------------------------------------------------------------------
 Center     Atomic      Atomic             Coordinates (Angstroms)
 Number     Number       Type             X           Y           Z
 ---------------------------------------------------------------------
      1          1           0       -3.369079   -0.984954   -0.506787
      2          6           0       -2.342963   -0.644856   -0.668240
      3          6           0       -1.717500   -0.113820    0.620900
      4          1           0       -2.382601    0.124710   -1.445100
      5          1           0       -1.773583   -1.488175   -1.066776
      6          1           0       -2.303532    0.725015    1.012466
      7         14           0        0.045089    0.455791    0.444698
      8          1           0       -1.736585   -0.886731    1.396602
      9          8           0        0.644709    1.640925   -0.532218
     10          8           0        0.903560   -0.876637    0.013732
     11          1           0        0.599990    1.033748    1.695623
     12          1           0        0.444195    1.586822   -1.466980
     13          6           0        2.303203   -0.889833   -0.142720
     14          1           0        2.615677   -1.912901   -0.359256
     15          1           0        2.811698   -0.557249    0.770286
     16          1           0        2.619971   -0.244613   -0.967607
 ---------------------------------------------------------------------

 SCF Done:  E(RPBE1PBE) =  -560.052573852     A.U. after   12 cycles

 The electronic state is 1-A.
 Alpha  occ. eigenvalues --  -66.25318 -19.20227 -19.19177 -10.25865 -10.22061
 Alpha  occ. eigenvalues --  -10.21899  -5.32988  -3.66558  -3.66384  -3.66228
 Alpha  occ. eigenvalues --   -1.04234  -1.01753  -0.78812  -0.69986  -0.64534
 Alpha  occ. eigenvalues --   -0.56747  -0.50650  -0.46595  -0.46408  -0.46075
 Alpha  occ. eigenvalues --   -0.43560  -0.40860  -0.39404  -0.37045  -0.36805
 Alpha  occ. eigenvalues --   -0.35524  -0.31532  -0.30392  -0.29177
 Alpha virt. eigenvalues --    0.01573   0.05438   0.05948   0.07989   0.08940
 Alpha virt. eigenvalues --    0.09941   0.10208   0.11963   0.12699   0.13476
 Alpha virt. eigenvalues --    0.14017   0.15151   0.15696   0.16103   0.19038

 Mulliken atomic charges:
              1
     1  H    0.130770
     2  C   -0.390135
     3  C   -0.307572
     4  H    0.114435
     5  H    0.144375
     6  H    0.124634
     7  Si   0.529919
     8  H    0.129920
     9  O   -0.516778
    10  O   -0.346634
    11  H   -0.077270
    12  H    0.310090
    13  C   -0.197200
    14  H    0.125991
    15  H    0.115682
    16  H    0.109775
 Sum of Mulliken atomic charges =   0.00000

 Dipole moment (field-independent basis, Debye):
    X=             -0.9370    Y=             -0.4479    Z=             -1.1799  Tot=              1.5719
 Quadrupole moment (field-independent basis, Debye-Ang):
   XX=            -41.8236   YY=            -48.7496   ZZ=            -42.7478
   XY=             -2.3776   XZ=             -1.2392   YZ=             -2.2729

 Normal termination of Gaussian 09 at Wed Aug  8 11:39:50 2018.
