 Gaussian 09, Revision C.01,
 Gaussian 09:  EM64L-G09RevC.01 23-Sep-2011

 --------------------------------------
 #SP PBE1PBE/Def2TZVP geom=connectivity
 --------------------------------------

 99/5=1,9=1/99;
 --------------
 Structure: 108
 --------------
 Charge =  0 Multiplicity = 1

                         Standard orientation:
 ---------------------------------------------------------------------
 Center     Atomic      Atomic             Coordinates (Angstroms)
 Number     Number       Type             X           Y           Z
 ---------------------------------------------------------------------
      1          1           0       -3.352874   -1.008832   -0.508941
      2          6           0       -2.330016   -0.658130   -0.668366
      3          6           0       -1.706452   -0.137005    0.625729
      4          1           0       -2.377776    0.120166   -1.436018
      5          1           0       -1.754310   -1.491817   -1.077925
      6          1           0       -2.298786    0.692139    1.028299
      7         14           0        0.050872    0.449633    0.452832
      8          1           0       -1.717387   -0.919131    1.392297
      9          8           0        0.584205    1.660421   -0.530281
     10          8           0        0.919745   -0.870268    0.004515
     11          1           0        0.603399    1.017522    1.709406
     12          1           0        0.362764    1.606056   -1.460440
     13          6           0        2.319128   -0.869701   -0.154802
     14          1           0        2.639835   -1.887450   -0.383995
     15          1           0        2.826644   -0.543573    0.761073
     16          1           0        2.628718   -0.212137   -0.972637
 ---------------------------------------------------------------------

 SCF Done:  E(RPBE1PBE) =  -560.054689123     A.U. after   12 cycles

 The electronic state is 1-A.
 Alpha  occ. eigenvalues --  -66.25309 -19.20259 -19.19283 -10.25941 -10.22017
 Alpha  occ. eigenvalues --  -10.21772  -5.32978  -3.66541  -3.66377  -3.66225
 Alpha  occ. eigenvalues --   -1.04248  -1.01853  -0.78736  -0.70052  -0.64473
 Alpha  occ. eigenvalues --   -0.56760  -0.50718  -0.46554  -0.46438  -0.46114
 Alpha  occ. eigenvalues --   -0.43564  -0.40857  -0.39376  -0.37071  -0.36771
 Alpha  occ. eigenvalues --   -0.35598  -0.31547  -0.30448  -0.29268
 Alpha virt. eigenvalues --    0.01724   0.05501   0.05981   0.07980   0.08939
 Alpha virt. eigenvalues --    0.10050   0.10241   0.11937   0.12662   0.13556
 Alpha virt. eigenvalues --    0.14139   0.15056   0.15634   0.16113   0.19070

 Mulliken atomic charges:
              1
     1  H    0.130736
     2  C   -0.390525
     3  C   -0.307244
     4  H    0.113535
     5  H    0.144046
     6  H    0.124150
     7  Si   0.530311
     8  H    0.128462
     9  O   -0.518168
    10  O   -0.345715
    11  H   -0.075594
    12  H    0.311496
    13  C   -0.199132
    14  H    0.126414
    15  H    0.115855
    16  H    0.111372
 Sum of Mulliken atomic charges =   0.00000

 Dipole moment (field-independent basis, Debye):
    X=             -0.8596    Y=             -0.4654    Z=             -1.1448  Tot=              1.5054
 Quadrupole moment (field-independent basis, Debye-Ang):
   XX=            -41.7617   YY=            -48.7936   ZZ=            -42.7525
   XY=             -2.3030   XZ=             -1.1115   YZ=             -2.2503

 Normal termination of Gaussian 09 at Wed Aug  8 10:54:36 2018.
