 Gaussian 09, Revision C.01,
 Gaussian 09:  EM64L-G09RevC.01 23-Sep-2011

 --------------------------------------
 #SP PBE1PBE/Def2TZVP geom=connectivity
 --------------------------------------

 99/5=1,9=1/99;
 --------------
 Structure: 112
 --------------
 Charge =  0 Multiplicity = 1

                         Standard orientation:
 ---------------------------------------------------------------------
 Center     Atomic      Atomic             Coordinates (Angstroms)
 Number     Number       Type             X           Y           Z
 ---------------------------------------------------------------------
      1          1           0       -3.363732   -0.992908   -0.507443
      2          6           0       -2.338677   -0.649325   -0.668261
      3          6           0       -1.713816   -0.121567    0.622517
      4          1           0       -2.380989    0.123145   -1.442092
      5          1           0       -1.767223   -1.489496   -1.070458
      6          1           0       -2.301915    0.714101    1.017739
      7         14           0        0.047060    0.453637    0.447350
      8          1           0       -1.730219   -0.897541    1.395217
      9          8           0        0.624487    1.648114   -0.531251
     10          8           0        0.908943   -0.874706    0.010624
     11          1           0        0.601202    1.028266    1.700143
     12          1           0        0.417192    1.593726   -1.465808
     13          6           0        2.308511   -0.883392   -0.146818
     14          1           0        2.623684   -1.904734   -0.367545
     15          1           0        2.816700   -0.552946    0.767134
     16          1           0        2.622918   -0.234086   -0.969400
 ---------------------------------------------------------------------

 SCF Done:  E(RPBE1PBE) =  -560.053320491     A.U. after   12 cycles

 The electronic state is 1-A.
 Alpha  occ. eigenvalues --  -66.25313 -19.20251 -19.19215 -10.25892 -10.22046
 Alpha  occ. eigenvalues --  -10.21856  -5.32982  -3.66550  -3.66380  -3.66225
 Alpha  occ. eigenvalues --   -1.04228  -1.01774  -0.78786  -0.70009  -0.64512
 Alpha  occ. eigenvalues --   -0.56734  -0.50670  -0.46579  -0.46418  -0.46089
 Alpha  occ. eigenvalues --   -0.43561  -0.40856  -0.39394  -0.37050  -0.36793
 Alpha  occ. eigenvalues --   -0.35549  -0.31536  -0.30414  -0.29208
 Alpha virt. eigenvalues --    0.01618   0.05463   0.05956   0.07986   0.08934
 Alpha virt. eigenvalues --    0.09979   0.10218   0.11956   0.12687   0.13502
 Alpha virt. eigenvalues --    0.14046   0.15120   0.15677   0.16103   0.19049

 Mulliken atomic charges:
              1
     1  H    0.130758
     2  C   -0.390278
     3  C   -0.307447
     4  H    0.114139
     5  H    0.144254
     6  H    0.124473
     7  Si   0.529991
     8  H    0.129428
     9  O   -0.517392
    10  O   -0.346321
    11  H   -0.076731
    12  H    0.310780
    13  C   -0.197855
    14  H    0.126144
    15  H    0.115756
    16  H    0.110300
 Sum of Mulliken atomic charges =   0.00000

 Dipole moment (field-independent basis, Debye):
    X=             -0.9100    Y=             -0.4549    Z=             -1.1704  Tot=              1.5508
 Quadrupole moment (field-independent basis, Debye-Ang):
   XX=            -41.8041   YY=            -48.7677   ZZ=            -42.7464
   XY=             -2.3530   XZ=             -1.1988   YZ=             -2.2691

 Normal termination of Gaussian 09 at Wed Aug  8 11:27:02 2018.
