 Gaussian 09, Revision C.01,
 Gaussian 09:  EM64L-G09RevC.01 23-Sep-2011

 --------------------------------------
 #SP PBE1PBE/Def2TZVP geom=connectivity
 --------------------------------------

 99/5=1,9=1/99;
 --------------
 Structure: 101
 --------------
 Charge =  0 Multiplicity = 1

                         Standard orientation:
 ---------------------------------------------------------------------
 Center     Atomic      Atomic             Coordinates (Angstroms)
 Number     Number       Type             X           Y           Z
 ---------------------------------------------------------------------
      1          1           0       -3.333458   -1.038170   -0.509881
      2          6           0       -2.314671   -0.675040   -0.667549
      3          6           0       -1.693154   -0.163239    0.631244
      4          1           0       -2.372407    0.111968   -1.425571
      5          1           0       -1.731490   -1.497727   -1.088616
      6          1           0       -2.292933    0.654818    1.045308
      7         14           0        0.057598    0.443527    0.461166
      8          1           0       -1.694073   -0.954670    1.388281
      9          8           0        0.512918    1.680042   -0.528669
     10          8           0        0.938825   -0.861820   -0.005282
     11          1           0        0.607505    1.001810    1.723182
     12          1           0        0.266326    1.621358   -1.453055
     13          6           0        2.337712   -0.844903   -0.168020
     14          1           0        2.668265   -1.856440   -0.410344
     15          1           0        2.844214   -0.524686    0.750499
     16          1           0        2.638417   -0.174321   -0.978566
 ---------------------------------------------------------------------

 SCF Done:  E(RPBE1PBE) =  -560.056757191     A.U. after   12 cycles

 The electronic state is 1-A.
 Alpha  occ. eigenvalues --  -66.25304 -19.20293 -19.19408 -10.26029 -10.21968
 Alpha  occ. eigenvalues --  -10.21624  -5.32974  -3.66527  -3.66375  -3.66227
 Alpha  occ. eigenvalues --   -1.04265  -1.01950  -0.78648  -0.70130  -0.64402
 Alpha  occ. eigenvalues --   -0.56750  -0.50795  -0.46542  -0.46465  -0.46141
 Alpha  occ. eigenvalues --   -0.43569  -0.40859  -0.39344  -0.37102  -0.36731
 Alpha  occ. eigenvalues --   -0.35660  -0.31574  -0.30494  -0.29369
 Alpha virt. eigenvalues --    0.01864   0.05555   0.06011   0.07974   0.08939
 Alpha virt. eigenvalues --    0.10135   0.10308   0.11880   0.12611   0.13586
 Alpha virt. eigenvalues --    0.14368   0.14942   0.15557   0.16141   0.19106

 Mulliken atomic charges:
              1
     1  H    0.130687
     2  C   -0.390996
     3  C   -0.306889
     4  H    0.112391
     5  H    0.143709
     6  H    0.123635
     7  Si   0.530862
     8  H    0.126755
     9  O   -0.519779
    10  O   -0.344605
    11  H   -0.073625
    12  H    0.313125
    13  C   -0.201376
    14  H    0.126866
    15  H    0.116100
    16  H    0.113141
 Sum of Mulliken atomic charges =   0.00000

 Dipole moment (field-independent basis, Debye):
    X=             -0.7695    Y=             -0.4881    Z=             -1.1032  Tot=              1.4309
 Quadrupole moment (field-independent basis, Debye-Ang):
   XX=            -41.6812   YY=            -48.8624   ZZ=            -42.7615
   XY=             -2.2149   XZ=             -0.9559   YZ=             -2.2050

 Normal termination of Gaussian 09 at Wed Aug  8 10:13:20 2018.
