 Gaussian 09, Revision C.01,
 Gaussian 09:  EM64L-G09RevC.01 23-Sep-2011

 --------------------------------------
 #SP PBE1PBE/Def2TZVP geom=connectivity
 --------------------------------------

 99/5=1,9=1/99;
 --------------
 Structure: 110
 --------------
 Charge =  0 Multiplicity = 1

                         Standard orientation:
 ---------------------------------------------------------------------
 Center     Atomic      Atomic             Coordinates (Angstroms)
 Number     Number       Type             X           Y           Z
 ---------------------------------------------------------------------
      1          1           0       -3.358312   -1.000868   -0.508164
      2          6           0       -2.334349   -0.653728   -0.668296
      3          6           0       -1.710139   -0.129273    0.624141
      4          1           0       -2.379378    0.121657   -1.439052
      5          1           0       -1.760767   -1.490675   -1.074172
      6          1           0       -2.300357    0.703150    1.023035
      7         14           0        0.048972    0.451642    0.450092
      8          1           0       -1.723815   -0.908325    1.393790
      9          8           0        0.604376    1.654302   -0.530812
     10          8           0        0.914351   -0.872505    0.007576
     11          1           0        0.602304    1.022917    1.704775
     12          1           0        0.389534    1.599787   -1.463095
     13          6           0        2.313833   -0.876574   -0.150813
     14          1           0        2.631773   -1.896136   -0.375766
     15          1           0        2.821685   -0.548278    0.764101
     16          1           0        2.625840   -0.223141   -0.971037
 ---------------------------------------------------------------------

 SCF Done:  E(RPBE1PBE) =  -560.054018335     A.U. after   12 cycles

 The electronic state is 1-A.
 Alpha  occ. eigenvalues --  -66.25309 -19.20257 -19.19249 -10.25916 -10.22032
 Alpha  occ. eigenvalues --  -10.21814  -5.32979  -3.66544  -3.66377  -3.66224
 Alpha  occ. eigenvalues --   -1.04240  -1.01815  -0.78761  -0.70030  -0.64493
 Alpha  occ. eigenvalues --   -0.56747  -0.50694  -0.46566  -0.46428  -0.46103
 Alpha  occ. eigenvalues --   -0.43563  -0.40856  -0.39389  -0.37060  -0.36782
 Alpha  occ. eigenvalues --   -0.35575  -0.31541  -0.30432  -0.29238
 Alpha virt. eigenvalues --    0.01671   0.05483   0.05969   0.07983   0.08937
 Alpha virt. eigenvalues --    0.10016   0.10228   0.11948   0.12674   0.13532
 Alpha virt. eigenvalues --    0.14088   0.15089   0.15656   0.16107   0.19060

 Mulliken atomic charges:
              1
     1  H    0.130751
     2  C   -0.390405
     3  C   -0.307355
     4  H    0.113833
     5  H    0.144154
     6  H    0.124312
     7  Si   0.530045
     8  H    0.128949
     9  O   -0.517661
    10  O   -0.346024
    11  H   -0.076176
    12  H    0.311137
    13  C   -0.198491
    14  H    0.126280
    15  H    0.115802
    16  H    0.110850
 Sum of Mulliken atomic charges =   0.00000

 Dipole moment (field-independent basis, Debye):
    X=             -0.8856    Y=             -0.4602    Z=             -1.1577  Tot=              1.5284
 Quadrupole moment (field-independent basis, Debye-Ang):
   XX=            -41.7835   YY=            -48.7806   ZZ=            -42.7502
   XY=             -2.3289   XZ=             -1.1539   YZ=             -2.2593

 Normal termination of Gaussian 09 at Wed Aug  8 11:14:15 2018.
