 Gaussian 09, Revision C.01,
 Gaussian 09:  EM64L-G09RevC.01 23-Sep-2011

 --------------------------------------
 #SP PBE1PBE/Def2TZVP geom=connectivity
 --------------------------------------

 99/5=1,9=1/99;
 --------------
 Structure: 104
 --------------
 Charge =  0 Multiplicity = 1

                         Standard orientation:
 ---------------------------------------------------------------------
 Center     Atomic      Atomic             Coordinates (Angstroms)
 Number     Number       Type             X           Y           Z
 ---------------------------------------------------------------------
      1          1           0       -3.341862   -1.025301   -0.509864
      2          6           0       -2.321287   -0.667488   -0.668128
      3          6           0       -1.698918   -0.152237    0.628890
      4          1           0       -2.374668    0.116121   -1.429983
      5          1           0       -1.741330   -1.494785   -1.084589
      6          1           0       -2.295488    0.670471    1.038352
      7         14           0        0.054717    0.445877    0.457869
      8          1           0       -1.704212   -0.940010    1.389715
      9          8           0        0.543666    1.672384   -0.529243
     10          8           0        0.930609   -0.865620   -0.001321
     11          1           0        0.605726    1.007752    1.717809
     12          1           0        0.307402    1.615796   -1.455596
     13          6           0        2.329736   -0.855736   -0.162567
     14          1           0        2.656027   -1.869892   -0.399663
     15          1           0        2.836654   -0.533377    0.754973
     16          1           0        2.634330   -0.190404   -0.975983
 ---------------------------------------------------------------------

 SCF Done:  E(RPBE1PBE) =  -560.055924211     A.U. after   12 cycles

 The electronic state is 1-A.
 Alpha  occ. eigenvalues --  -66.25311 -19.20274 -19.19357 -10.25992 -10.21990
 Alpha  occ. eigenvalues --  -10.21690  -5.32979  -3.66537  -3.66380  -3.66230
 Alpha  occ. eigenvalues --   -1.04258  -1.01914  -0.78688  -0.70098  -0.64434
 Alpha  occ. eigenvalues --   -0.56754  -0.50763  -0.46542  -0.46457  -0.46134
 Alpha  occ. eigenvalues --   -0.43568  -0.40860  -0.39357  -0.37089  -0.36749
 Alpha  occ. eigenvalues --   -0.35633  -0.31562  -0.30480  -0.29328
 Alpha virt. eigenvalues --    0.01809   0.05532   0.06000   0.07975   0.08941
 Alpha virt. eigenvalues --    0.10104   0.10273   0.11907   0.12633   0.13581
 Alpha virt. eigenvalues --    0.14262   0.14988   0.15589   0.16125   0.19089

 Mulliken atomic charges:
              1
     1  H    0.130715
     2  C   -0.390792
     3  C   -0.307004
     4  H    0.112904
     5  H    0.143853
     6  H    0.123865
     7  Si   0.530584
     8  H    0.127499
     9  O   -0.519140
    10  O   -0.345060
    11  H   -0.074423
    12  H    0.312316
    13  C   -0.200424
    14  H    0.126678
    15  H    0.115990
    16  H    0.112438
 Sum of Mulliken atomic charges =   0.00000

 Dipole moment (field-independent basis, Debye):
    X=             -0.8094    Y=             -0.4801    Z=             -1.1191  Tot=              1.4622
 Quadrupole moment (field-independent basis, Debye-Ang):
   XX=            -41.7151   YY=            -48.8345   ZZ=            -42.7595
   XY=             -2.2553   XZ=             -1.0215   YZ=             -2.2236

 Normal termination of Gaussian 09 at Wed Aug  8 10:32:08 2018.
