 Gaussian 09, Revision C.01,
 Gaussian 09:  EM64L-G09RevC.01 23-Sep-2011

 --------------------------------------
 #SP PBE1PBE/Def2TZVP geom=connectivity
 --------------------------------------

 99/5=1,9=1/99;
 ------------
 Structure: 1
 ------------
 Charge =  0 Multiplicity = 1

                         Standard orientation:
 ---------------------------------------------------------------------
 Center     Atomic      Atomic             Coordinates (Angstroms)
 Number     Number       Type             X           Y           Z
 ---------------------------------------------------------------------
      1          1           0       -3.024813   -1.475183   -0.311578
      2          6           0       -2.077999   -0.974065   -0.528544
      3          6           0       -1.473483   -0.346866    0.726950
      4          1           0       -2.285810   -0.222279   -1.295972
      5          1           0       -1.403827   -1.714986   -0.965278
      6          1           0       -2.163739    0.386929    1.157641
      7         14           0        0.161042    0.499691    0.455116
      8          1           0       -1.323055   -1.111441    1.496538
      9          8           0       -0.529738    1.528116   -0.632407
     10          8           0        1.197096   -0.677271   -0.034191
     11          1           0        0.686274    1.161734    1.676833
     12          1           0       -1.013353    1.139641   -1.363070
     13          6           0        2.569212   -0.464463   -0.270123
     14          1           0        3.029722   -1.423973   -0.511918
     15          1           0        3.068924   -0.052617    0.614993
     16          1           0        2.729850    0.222103   -1.106730
 ---------------------------------------------------------------------

 SCF Done:  E(RPBE1PBE) =  -560.038512893     A.U. after   13 cycles

 The electronic state is 1-A.
 Alpha  occ. eigenvalues --  -66.25844 -19.21198 -19.19238 -10.27234 -10.21434
 Alpha  occ. eigenvalues --  -10.19133  -5.33490  -3.67012  -3.66945  -3.66715
 Alpha  occ. eigenvalues --   -1.05111  -1.02114  -0.77321  -0.71298  -0.63525
 Alpha  occ. eigenvalues --   -0.56270  -0.51845  -0.47621  -0.47254  -0.45845
 Alpha  occ. eigenvalues --   -0.43493  -0.41512  -0.38174  -0.37017  -0.36338
 Alpha  occ. eigenvalues --   -0.34834  -0.32685  -0.31035  -0.27647
 Alpha virt. eigenvalues --    0.01703   0.04758   0.05676   0.07736   0.09058
 Alpha virt. eigenvalues --    0.09264   0.11043   0.11657   0.11958   0.12973
 Alpha virt. eigenvalues --    0.13705   0.15059   0.16822   0.18304   0.20381

 Mulliken atomic charges:
              1
     1  H    0.129071
     2  C   -0.391529
     3  C   -0.308126
     4  H    0.083506
     5  H    0.142658
     6  H    0.115813
     7  Si   0.551694
     8  H    0.095168
     9  O   -0.517908
    10  O   -0.330530
    11  H   -0.037697
    12  H    0.313766
    13  C   -0.223976
    14  H    0.132503
    15  H    0.120442
    16  H    0.125145
 Sum of Mulliken atomic charges =   0.00000

 Dipole moment (field-independent basis, Debye):
    X=              0.8693    Y=             -0.5499    Z=             -0.4917  Tot=              1.1401
 Quadrupole moment (field-independent basis, Debye-Ang):
   XX=            -40.1756   YY=            -49.6384   ZZ=            -43.5990
   XY=              0.2914   XZ=              0.7539   YZ=              0.3414

 Normal termination of Gaussian 09 at Wed Aug  8 13:19:52 2018.
