 Gaussian 09, Revision C.01,
 Gaussian 09:  EM64L-G09RevC.01 23-Sep-2011

 --------------------------------------
 #SP PBE1PBE/Def2TZVP geom=connectivity
 --------------------------------------

 99/5=1,9=1/99;
 --------------
 Structure: 116
 --------------
 Charge =  0 Multiplicity = 1

                         Standard orientation:
 ---------------------------------------------------------------------
 Center     Atomic      Atomic             Coordinates (Angstroms)
 Number     Number       Type             X           Y           Z
 ---------------------------------------------------------------------
      1          1           0       -3.374124   -0.977743   -0.505752
      2          6           0       -2.347023   -0.641008   -0.667994
      3          6           0       -1.720911   -0.106336    0.619327
      4          1           0       -2.384188    0.125468   -1.448024
      5          1           0       -1.779634   -1.487447   -1.062734
      6          1           0       -2.304961    0.735634    1.007107
      7         14           0        0.043272    0.457914    0.441830
      8          1           0       -1.742477   -0.876007    1.398179
      9          8           0        0.663561    1.634379   -0.532729
     10          8           0        0.898484   -0.878522    0.016835
     11          1           0        0.598968    1.039534    1.690703
     12          1           0        0.470559    1.580098   -1.469749
     13          6           0        2.298178   -0.896038   -0.138738
     14          1           0        2.608084   -1.920803   -0.350894
     15          1           0        2.807018   -0.561051    0.773197
     16          1           0        2.617119   -0.255040   -0.966076
 ---------------------------------------------------------------------

 SCF Done:  E(RPBE1PBE) =  -560.051842749     A.U. after   12 cycles

 The electronic state is 1-A.
 Alpha  occ. eigenvalues --  -66.25320 -19.20221 -19.19144 -10.25842 -10.22074
 Alpha  occ. eigenvalues --  -10.21937  -5.32990  -3.66563  -3.66385  -3.66228
 Alpha  occ. eigenvalues --   -1.04223  -1.01711  -0.78835  -0.69965  -0.64552
 Alpha  occ. eigenvalues --   -0.56737  -0.50627  -0.46609  -0.46399  -0.46060
 Alpha  occ. eigenvalues --   -0.43557  -0.40858  -0.39409  -0.37037  -0.36814
 Alpha  occ. eigenvalues --   -0.35498  -0.31527  -0.30370  -0.29147
 Alpha virt. eigenvalues --    0.01518   0.05417   0.05934   0.07993   0.08937
 Alpha virt. eigenvalues --    0.09903   0.10202   0.11966   0.12710   0.13436
 Alpha virt. eigenvalues --    0.13996   0.15180   0.15714   0.16104   0.19028

 Mulliken atomic charges:
              1
     1  H    0.130770
     2  C   -0.390008
     3  C   -0.307680
     4  H    0.114704
     5  H    0.144471
     6  H    0.124785
     7  Si   0.529953
     8  H    0.130366
     9  O   -0.516509
    10  O   -0.346919
    11  H   -0.077827
    12  H    0.309782
    13  C   -0.196602
    14  H    0.125854
    15  H    0.115648
    16  H    0.109211
 Sum of Mulliken atomic charges =   0.00000

 Dipole moment (field-independent basis, Debye):
    X=             -0.9592    Y=             -0.4420    Z=             -1.1929  Tot=              1.5933
 Quadrupole moment (field-independent basis, Debye-Ang):
   XX=            -41.8421   YY=            -48.7373   ZZ=            -42.7437
   XY=             -2.3986   XZ=             -1.2819   YZ=             -2.2815

 Normal termination of Gaussian 09 at Wed Aug  8 11:52:27 2018.
