 Gaussian 09, Revision C.01,
 Gaussian 09:  EM64L-G09RevC.01 23-Sep-2011

 --------------------------------------
 #SP PBE1PBE/Def2TZVP geom=connectivity
 --------------------------------------

 99/5=1,9=1/99;
 --------------
 Structure: 100
 --------------
 Charge =  0 Multiplicity = 1

                         Standard orientation:
 ---------------------------------------------------------------------
 Center     Atomic      Atomic             Coordinates (Angstroms)
 Number     Number       Type             X           Y           Z
 ---------------------------------------------------------------------
      1          1           0       -3.330802   -1.042132   -0.510129
      2          6           0       -2.312579   -0.677300   -0.667508
      3          6           0       -1.691325   -0.166925    0.631971
      4          1           0       -2.371680    0.110965   -1.424119
      5          1           0       -1.728396   -1.498424   -1.090231
      6          1           0       -2.292102    0.649559    1.047688
      7         14           0        0.058518    0.442589    0.462358
      8          1           0       -1.690873   -0.959692    1.387609
      9          8           0        0.503250    1.683043   -0.528298
     10          8           0        0.941406   -0.860698   -0.006702
     11          1           0        0.608085    0.999411    1.725168
     12          1           0        0.253049    1.623397   -1.451936
     13          6           0        2.340211   -0.841537   -0.169894
     14          1           0        2.672094   -1.852181   -0.414120
     15          1           0        2.846586   -0.522235    0.749013
     16          1           0        2.639695   -0.169104   -0.979359
 ---------------------------------------------------------------------

 SCF Done:  E(RPBE1PBE) =  -560.057012773     A.U. after   12 cycles

 The electronic state is 1-A.
 Alpha  occ. eigenvalues --  -66.25311 -19.20296 -19.19429 -10.26042 -10.21962
 Alpha  occ. eigenvalues --  -10.21606  -5.32979  -3.66531  -3.66381  -3.66233
 Alpha  occ. eigenvalues --   -1.04262  -1.01955  -0.78638  -0.70143  -0.64394
 Alpha  occ. eigenvalues --   -0.56735  -0.50804  -0.46546  -0.46468  -0.46143
 Alpha  occ. eigenvalues --   -0.43571  -0.40862  -0.39334  -0.37105  -0.36726
 Alpha  occ. eigenvalues --   -0.35661  -0.31579  -0.30501  -0.29385
 Alpha virt. eigenvalues --    0.01879   0.05558   0.06013   0.07973   0.08939
 Alpha virt. eigenvalues --    0.10141   0.10319   0.11869   0.12603   0.13585
 Alpha virt. eigenvalues --    0.14400   0.14926   0.15546   0.16144   0.19109

 Mulliken atomic charges:
              1
     1  H    0.130683
     2  C   -0.391065
     3  C   -0.306795
     4  H    0.112244
     5  H    0.143666
     6  H    0.123585
     7  Si   0.531008
     8  H    0.126529
     9  O   -0.520269
    10  O   -0.344419
    11  H   -0.073292
    12  H    0.313336
    13  C   -0.201684
    14  H    0.126929
    15  H    0.116141
    16  H    0.113404
 Sum of Mulliken atomic charges =   0.00000

 Dipole moment (field-independent basis, Debye):
    X=             -0.7577    Y=             -0.4935    Z=             -1.0962  Tot=              1.4210
 Quadrupole moment (field-independent basis, Debye-Ang):
   XX=            -41.6680   YY=            -48.8779   ZZ=            -42.7633
   XY=             -2.2043   XZ=             -0.9340   YZ=             -2.1963

 Normal termination of Gaussian 09 at Wed Aug  8 10:07:08 2018.
