 Gaussian 09, Revision C.01,
 Gaussian 09:  EM64L-G09RevC.01 23-Sep-2011

 --------------------------------------
 #SP PBE1PBE/Def2TZVP geom=connectivity
 --------------------------------------

 99/5=1,9=1/99;
 -------------
 Structure: 18
 -------------
 Charge =  0 Multiplicity = 1

                         Standard orientation:
 ---------------------------------------------------------------------
 Center     Atomic      Atomic             Coordinates (Angstroms)
 Number     Number       Type             X           Y           Z
 ---------------------------------------------------------------------
      1          1           0       -3.071422   -1.419969   -0.381104
      2          6           0       -2.114282   -0.928667   -0.573861
      3          6           0       -1.508263   -0.356504    0.706942
      4          1           0       -2.302963   -0.147011   -1.315971
      5          1           0       -1.450041   -1.665910   -1.031538
      6          1           0       -2.188665    0.374116    1.158218
      7         14           0        0.142986    0.469544    0.476187
      8          1           0       -1.377197   -1.149984    1.450366
      9          8           0       -0.372647    1.612802   -0.593509
     10          8           0        1.161724   -0.708067   -0.046758
     11          1           0        0.670606    1.079122    1.723902
     12          1           0       -0.836222    1.310173   -1.375928
     13          6           0        2.539132   -0.511824   -0.265597
     14          1           0        2.984412   -1.470442   -0.537576
     15          1           0        3.039353   -0.140074    0.636811
     16          1           0        2.718200    0.200460   -1.076569
 ---------------------------------------------------------------------

 SCF Done:  E(RPBE1PBE) =  -560.049481453     A.U. after   12 cycles

 The electronic state is 1-A.
 Alpha  occ. eigenvalues --  -66.25689 -19.20906 -19.19645 -10.27047 -10.21463
 Alpha  occ. eigenvalues --  -10.19586  -5.33338  -3.66856  -3.66786  -3.66581
 Alpha  occ. eigenvalues --   -1.04911  -1.02246  -0.77532  -0.71105  -0.63600
 Alpha  occ. eigenvalues --   -0.56423  -0.51698  -0.47423  -0.47084  -0.45777
 Alpha  occ. eigenvalues --   -0.43505  -0.41326  -0.38414  -0.37169  -0.36409
 Alpha  occ. eigenvalues --   -0.35086  -0.32521  -0.30847  -0.28485
 Alpha virt. eigenvalues --    0.02131   0.04963   0.05792   0.07917   0.09028
 Alpha virt. eigenvalues --    0.09465   0.11050   0.11671   0.11882   0.13039
 Alpha virt. eigenvalues --    0.13620   0.15103   0.16686   0.18120   0.20099

 Mulliken atomic charges:
              1
     1  H    0.129240
     2  C   -0.394184
     3  C   -0.306316
     4  H    0.089319
     5  H    0.142327
     6  H    0.117103
     7  Si   0.550536
     8  H    0.101981
     9  O   -0.525017
    10  O   -0.332127
    11  H   -0.045291
    12  H    0.318416
    13  C   -0.221856
    14  H    0.131523
    15  H    0.119802
    16  H    0.124545
 Sum of Mulliken atomic charges =   0.00000

 Dipole moment (field-independent basis, Debye):
    X=              0.5663    Y=             -0.5856    Z=             -0.5860  Tot=              1.0035
 Quadrupole moment (field-independent basis, Debye-Ang):
   XX=            -40.3824   YY=            -49.7194   ZZ=            -43.2892
   XY=             -0.2868   XZ=              0.6357   YZ=             -0.3265

 Normal termination of Gaussian 09 at Wed Aug  8 13:06:15 2018.
