 Gaussian 09, Revision C.01,
 Gaussian 09:  EM64L-G09RevC.01 23-Sep-2011

 --------------------------------------
 #SP PBE1PBE/Def2TZVP geom=connectivity
 --------------------------------------

 99/5=1,9=1/99;
 --------------
 Structure: 107
 --------------
 Charge =  0 Multiplicity = 1

                         Standard orientation:
 ---------------------------------------------------------------------
 Center     Atomic      Atomic             Coordinates (Angstroms)
 Number     Number       Type             X           Y           Z
 ---------------------------------------------------------------------
      1          1           0       -3.350298   -1.012675   -0.509205
      2          6           0       -2.327968   -0.660303   -0.668340
      3          6           0       -1.704682   -0.140644    0.626479
      4          1           0       -2.377036    0.119296   -1.434585
      5          1           0       -1.751270   -1.492478   -1.079576
      6          1           0       -2.298005    0.686977    1.030723
      7         14           0        0.051789    0.448680    0.454052
      8          1           0       -1.714304   -0.924152    1.391653
      9          8           0        0.574668    1.663552   -0.529963
     10          8           0        0.922300   -0.869240    0.003094
     11          1           0        0.603962    1.015075    1.711456
     12          1           0        0.349599    1.608342   -1.459362
     13          6           0        2.321628   -0.866493   -0.156681
     14          1           0        2.643637   -1.883395   -0.387796
     15          1           0        2.829005   -0.541313    0.759608
     16          1           0        2.630057   -0.207052   -0.973442
 ---------------------------------------------------------------------

 SCF Done:  E(RPBE1PBE) =  -560.054994842     A.U. after   12 cycles

 The electronic state is 1-A.
 Alpha  occ. eigenvalues --  -66.25310 -19.20264 -19.19302 -10.25954 -10.22011
 Alpha  occ. eigenvalues --  -10.21753  -5.32979  -3.66541  -3.66379  -3.66227
 Alpha  occ. eigenvalues --   -1.04249  -1.01865  -0.78725  -0.70064  -0.64464
 Alpha  occ. eigenvalues --   -0.56753  -0.50728  -0.46551  -0.46443  -0.46120
 Alpha  occ. eigenvalues --   -0.43566  -0.40858  -0.39372  -0.37074  -0.36766
 Alpha  occ. eigenvalues --   -0.35605  -0.31551  -0.30458  -0.29283
 Alpha virt. eigenvalues --    0.01743   0.05508   0.05986   0.07978   0.08939
 Alpha virt. eigenvalues --    0.10063   0.10247   0.11930   0.12655   0.13563
 Alpha virt. eigenvalues --    0.14164   0.15039   0.15623   0.16114   0.19074

 Mulliken atomic charges:
              1
     1  H    0.130734
     2  C   -0.390596
     3  C   -0.307169
     4  H    0.113393
     5  H    0.144000
     6  H    0.124088
     7  Si   0.530328
     8  H    0.128237
     9  O   -0.518428
    10  O   -0.345552
    11  H   -0.075306
    12  H    0.311704
    13  C   -0.199443
    14  H    0.126481
    15  H    0.115892
    16  H    0.111637
 Sum of Mulliken atomic charges =   0.00000

 Dipole moment (field-independent basis, Debye):
    X=             -0.8479    Y=             -0.4701    Z=             -1.1386  Tot=              1.4954
 Quadrupole moment (field-independent basis, Debye-Ang):
   XX=            -41.7504   YY=            -48.8063   ZZ=            -42.7543
   XY=             -2.2927   XZ=             -1.0901   YZ=             -2.2432

 Normal termination of Gaussian 09 at Wed Aug  8 10:48:20 2018.
