 Gaussian 09, Revision C.01,
 Gaussian 09:  EM64L-G09RevC.01 23-Sep-2011

 --------------------------------------
 #SP PBE1PBE/Def2TZVP geom=connectivity
 --------------------------------------

 99/5=1,9=1/99;
 --------------
 Structure: 103
 --------------
 Charge =  0 Multiplicity = 1

                         Standard orientation:
 ---------------------------------------------------------------------
 Center     Atomic      Atomic             Coordinates (Angstroms)
 Number     Number       Type             X           Y           Z
 ---------------------------------------------------------------------
      1          1           0       -3.339240   -1.029214   -0.510119
      2          6           0       -2.319214   -0.669713   -0.668094
      3          6           0       -1.697114   -0.155905    0.629626
      4          1           0       -2.373936    0.115172   -1.428538
      5          1           0       -1.738258   -1.495467   -1.086219
      6          1           0       -2.294679    0.665251    1.040750
      7         14           0        0.055636    0.444932    0.459073
      8          1           0       -1.701061   -0.945034    1.389053
      9          8           0        0.534052    1.675444   -0.528893
     10          8           0        0.933179   -0.864538   -0.002741
     11          1           0        0.606298    1.005331    1.719821
     12          1           0        0.294170    1.617943   -1.454493
     13          6           0        2.332236   -0.852435   -0.164443
     14          1           0        2.659847   -1.865717   -0.403450
     15          1           0        2.839022   -0.531006    0.753495
     16          1           0        2.635635   -0.185241   -0.976781
 ---------------------------------------------------------------------

 SCF Done:  E(RPBE1PBE) =  -560.056201430     A.U. after   12 cycles

 The electronic state is 1-A.
 Alpha  occ. eigenvalues --  -66.25315 -19.20278 -19.19377 -10.26005 -10.21984
 Alpha  occ. eigenvalues --  -10.21672  -5.32983  -3.66539  -3.66384  -3.66235
 Alpha  occ. eigenvalues --   -1.04257  -1.01922  -0.78677  -0.70110  -0.64426
 Alpha  occ. eigenvalues --   -0.56742  -0.50772  -0.46543  -0.46461  -0.46137
 Alpha  occ. eigenvalues --   -0.43570  -0.40862  -0.39350  -0.37093  -0.36744
 Alpha  occ. eigenvalues --   -0.35636  -0.31567  -0.30488  -0.29344
 Alpha virt. eigenvalues --    0.01826   0.05537   0.06004   0.07974   0.08940
 Alpha virt. eigenvalues --    0.10112   0.10281   0.11897   0.12625   0.13582
 Alpha virt. eigenvalues --    0.14293   0.14971   0.15577   0.16128   0.19093

 Mulliken atomic charges:
              1
     1  H    0.130712
     2  C   -0.390860
     3  C   -0.306919
     4  H    0.112759
     5  H    0.143809
     6  H    0.123810
     7  Si   0.530674
     8  H    0.127274
     9  O   -0.519532
    10  O   -0.344883
    11  H   -0.074110
    12  H    0.312527
    13  C   -0.200734
    14  H    0.126743
    15  H    0.116029
    16  H    0.112702
 Sum of Mulliken atomic charges =   0.00000

 Dipole moment (field-independent basis, Debye):
    X=             -0.7977    Y=             -0.4853    Z=             -1.1124  Tot=              1.4523
 Quadrupole moment (field-independent basis, Debye-Ang):
   XX=            -41.7027   YY=            -48.8488   ZZ=            -42.7613
   XY=             -2.2448   XZ=             -0.9999   YZ=             -2.2156

 Normal termination of Gaussian 09 at Wed Aug  8 10:25:46 2018.
