 Gaussian 09, Revision C.01,
 Gaussian 09:  EM64L-G09RevC.01 23-Sep-2011

 --------------------------------------
 #SP PBE1PBE/Def2TZVP geom=connectivity
 --------------------------------------

 99/5=1,9=1/99;
 -------------
 Structure: 14
 -------------
 Charge =  0 Multiplicity = 1

                         Standard orientation:
 ---------------------------------------------------------------------
 Center     Atomic      Atomic             Coordinates (Angstroms)
 Number     Number       Type             X           Y           Z
 ---------------------------------------------------------------------
      1          1           0       -3.059914   -1.434162   -0.366547
      2          6           0       -2.105397   -0.939761   -0.564318
      3          6           0       -1.499766   -0.356217    0.711524
      4          1           0       -2.298999   -0.163988   -1.311317
      5          1           0       -1.438567   -1.676993   -1.018230
      6          1           0       -2.182738    0.374276    1.159109
      7         14           0        0.147238    0.475863    0.472261
      8          1           0       -1.363721   -1.144071    1.460020
      9          8           0       -0.410992    1.594848   -0.601820
     10          8           0        1.170481   -0.700528   -0.044600
     11          1           0        0.674240    1.096238    1.714906
     12          1           0       -0.879424    1.273267   -1.373025
     13          6           0        2.546579   -0.499414   -0.267228
     14          1           0        2.995802   -1.457775   -0.533568
     15          1           0        3.046671   -0.119307    0.631764
     16          1           0        2.720920    0.208223   -1.083283
 ---------------------------------------------------------------------

 SCF Done:  E(RPBE1PBE) =  -560.047291816     A.U. after   13 cycles

 The electronic state is 1-A.
 Alpha  occ. eigenvalues --  -66.25726 -19.20976 -19.19555 -10.27093 -10.21450
 Alpha  occ. eigenvalues --  -10.19479  -5.33374  -3.66893  -3.66823  -3.66612
 Alpha  occ. eigenvalues --   -1.04959  -1.02229  -0.77480  -0.71151  -0.63576
 Alpha  occ. eigenvalues --   -0.56398  -0.51738  -0.47471  -0.47124  -0.45783
 Alpha  occ. eigenvalues --   -0.43500  -0.41369  -0.38354  -0.37142  -0.36391
 Alpha  occ. eigenvalues --   -0.35026  -0.32566  -0.30894  -0.28307
 Alpha virt. eigenvalues --    0.02057   0.04911   0.05763   0.07879   0.09035
 Alpha virt. eigenvalues --    0.09410   0.11046   0.11693   0.11884   0.13010
 Alpha virt. eigenvalues --    0.13637   0.15094   0.16719   0.18175   0.20176

 Mulliken atomic charges:
              1
     1  H    0.129157
     2  C   -0.393745
     3  C   -0.306644
     4  H    0.087899
     5  H    0.142383
     6  H    0.116766
     7  Si   0.551074
     8  H    0.100472
     9  O   -0.523631
    10  O   -0.331680
    11  H   -0.043538
    12  H    0.317469
    13  C   -0.222417
    14  H    0.131756
    15  H    0.119959
    16  H    0.124721
 Sum of Mulliken atomic charges =   0.00000

 Dipole moment (field-independent basis, Debye):
    X=              0.6388    Y=             -0.5781    Z=             -0.5626  Tot=              1.0290
 Quadrupole moment (field-independent basis, Debye-Ang):
   XX=            -40.3316   YY=            -49.7145   ZZ=            -43.3505
   XY=             -0.1540   XZ=              0.6716   YZ=             -0.1765

 Normal termination of Gaussian 09 at Wed Aug  8 12:40:02 2018.
