 Gaussian 09, Revision C.01,
 Gaussian 09:  EM64L-G09RevC.01 23-Sep-2011

 --------------------------------------
 #SP PBE1PBE/Def2TZVP geom=connectivity
 --------------------------------------

 99/5=1,9=1/99;
 --------------
 Structure: 111
 --------------
 Charge =  0 Multiplicity = 1

                         Standard orientation:
 ---------------------------------------------------------------------
 Center     Atomic      Atomic             Coordinates (Angstroms)
 Number     Number       Type             X           Y           Z
 ---------------------------------------------------------------------
      1          1           0       -3.361148   -0.996498   -0.508144
      2          6           0       -2.336604   -0.651173   -0.668482
      3          6           0       -1.712091   -0.125453    0.623295
      4          1           0       -2.380177    0.122963   -1.440575
      5          1           0       -1.764130   -1.489672   -1.072713
      6          1           0       -2.301205    0.708536    1.020546
      7         14           0        0.047957    0.452518    0.448920
      8          1           0       -1.727228   -0.903170    1.394266
      9          8           0        0.614951    1.651346   -0.531056
     10          8           0        0.911509   -0.873682    0.008990
     11          1           0        0.601677    1.025099    1.702836
     12          1           0        0.404126    1.596827   -1.463912
     13          6           0        2.311043   -0.880126   -0.148863
     14          1           0        2.627533   -1.900547   -0.371956
     15          1           0        2.819044   -0.551034    0.765682
     16          1           0        2.624340   -0.228563   -0.970082
 ---------------------------------------------------------------------

 SCF Done:  E(RPBE1PBE) =  -560.053667938     A.U. after   12 cycles

 The electronic state is 1-A.
 Alpha  occ. eigenvalues --  -66.25317 -19.20245 -19.19233 -10.25904 -10.22040
 Alpha  occ. eigenvalues --  -10.21838  -5.32986  -3.66552  -3.66384  -3.66230
 Alpha  occ. eigenvalues --   -1.04235  -1.01797  -0.78775  -0.70020  -0.64504
 Alpha  occ. eigenvalues --   -0.56741  -0.50683  -0.46574  -0.46424  -0.46097
 Alpha  occ. eigenvalues --   -0.43563  -0.40859  -0.39388  -0.37056  -0.36789
 Alpha  occ. eigenvalues --   -0.35558  -0.31539  -0.30425  -0.29225
 Alpha virt. eigenvalues --    0.01648   0.05469   0.05964   0.07983   0.08938
 Alpha virt. eigenvalues --    0.09996   0.10221   0.11952   0.12680   0.13521
 Alpha virt. eigenvalues --    0.14065   0.15103   0.15665   0.16104   0.19053

 Mulliken atomic charges:
              1
     1  H    0.130759
     2  C   -0.390342
     3  C   -0.307363
     4  H    0.114015
     5  H    0.144207
     6  H    0.124404
     7  Si   0.530084
     8  H    0.129202
     9  O   -0.517649
    10  O   -0.346161
    11  H   -0.076391
    12  H    0.310825
    13  C   -0.198164
    14  H    0.126210
    15  H    0.115773
    16  H    0.110592
 Sum of Mulliken atomic charges =   0.00000

 Dipole moment (field-independent basis, Debye):
    X=             -0.8988    Y=             -0.4590    Z=             -1.1618  Tot=              1.5390
 Quadrupole moment (field-independent basis, Debye-Ang):
   XX=            -41.7926   YY=            -48.7765   ZZ=            -42.7494
   XY=             -2.3422   XZ=             -1.1768   YZ=             -2.2612

 Normal termination of Gaussian 09 at Wed Aug  8 11:20:37 2018.
