 Gaussian 09, Revision C.01,
 Gaussian 09:  EM64L-G09RevC.01 23-Sep-2011

 --------------------------------------
 #SP PBE1PBE/Def2TZVP geom=connectivity
 --------------------------------------

 99/5=1,9=1/99;
 --------------
 Structure: 102
 --------------
 Charge =  0 Multiplicity = 1

                         Standard orientation:
 ---------------------------------------------------------------------
 Center     Atomic      Atomic             Coordinates (Angstroms)
 Number     Number       Type             X           Y           Z
 ---------------------------------------------------------------------
      1          1           0       -3.336340   -1.033671   -0.510135
      2          6           0       -2.316930   -0.672340   -0.667905
      3          6           0       -1.695125   -0.159714    0.630424
      4          1           0       -2.373150    0.113711   -1.427033
      5          1           0       -1.734863   -1.496510   -1.087610
      6          1           0       -2.293795    0.659842    1.043127
      7         14           0        0.056633    0.444100    0.460195
      8          1           0       -1.697566   -0.950098    1.388551
      9          8           0        0.523340    1.678215   -0.528639
     10          8           0        0.936014   -0.863254   -0.004110
     11          1           0        0.606915    1.003268    1.721656
     12          1           0        0.280748    1.619962   -1.453617
     13          6           0        2.334989   -0.848732   -0.166324
     14          1           0        2.664066   -1.861114   -0.407125
     15          1           0        2.841631   -0.528036    0.751951
     16          1           0        2.637049   -0.179734   -0.977675
 ---------------------------------------------------------------------

 SCF Done:  E(RPBE1PBE) =  -560.056492868     A.U. after   12 cycles

 The electronic state is 1-A.
 Alpha  occ. eigenvalues --  -66.25314 -19.20282 -19.19396 -10.26019 -10.21976
 Alpha  occ. eigenvalues --  -10.21648  -5.32981  -3.66536  -3.66383  -3.66234
 Alpha  occ. eigenvalues --   -1.04260  -1.01936  -0.78663  -0.70122  -0.64414
 Alpha  occ. eigenvalues --   -0.56744  -0.50785  -0.46543  -0.46464  -0.46140
 Alpha  occ. eigenvalues --   -0.43570  -0.40861  -0.39343  -0.37096  -0.36737
 Alpha  occ. eigenvalues --   -0.35647  -0.31571  -0.30493  -0.29359
 Alpha virt. eigenvalues --    0.01847   0.05545   0.06007   0.07973   0.08940
 Alpha virt. eigenvalues --    0.10124   0.10294   0.11888   0.12618   0.13585
 Alpha virt. eigenvalues --    0.14329   0.14955   0.15566   0.16133   0.19099

 Mulliken atomic charges:
              1
     1  H    0.130698
     2  C   -0.390936
     3  C   -0.306866
     4  H    0.112598
     5  H    0.143748
     6  H    0.123728
     7  Si   0.530857
     8  H    0.127010
     9  O   -0.519792
    10  O   -0.344728
    11  H   -0.073837
    12  H    0.312778
    13  C   -0.201073
    14  H    0.126813
    15  H    0.116076
    16  H    0.112925
 Sum of Mulliken atomic charges =   0.00000

 Dipole moment (field-independent basis, Debye):
    X=             -0.7823    Y=             -0.4884    Z=             -1.1072  Tot=              1.4410
 Quadrupole moment (field-independent basis, Debye-Ang):
   XX=            -41.6902   YY=            -48.8594   ZZ=            -42.7612
   XY=             -2.2293   XZ=             -0.9796   YZ=             -2.2097

 Normal termination of Gaussian 09 at Wed Aug  8 10:19:33 2018.
