 Gaussian 09, Revision C.01,
 Gaussian 09:  EM64L-G09RevC.01 23-Sep-2011

 --------------------------------------
 #SP PBE1PBE/Def2TZVP geom=connectivity
 --------------------------------------

 99/5=1,9=1/99;
 -------------
 Structure: 19
 -------------
 Charge =  0 Multiplicity = 1

                         Standard orientation:
 ---------------------------------------------------------------------
 Center     Atomic      Atomic             Coordinates (Angstroms)
 Number     Number       Type             X           Y           Z
 ---------------------------------------------------------------------
      1          1           0       -3.074220   -1.416465   -0.384541
      2          6           0       -2.116436   -0.925958   -0.576119
      3          6           0       -1.510333   -0.356458    0.705831
      4          1           0       -2.303899   -0.142946   -1.317107
      5          1           0       -1.452833   -1.663251   -1.034638
      6          1           0       -2.190102    0.374241    1.157932
      7         14           0        0.141957    0.468063    0.477076
      8          1           0       -1.380499   -1.151231    1.448090
      9          8           0       -0.363459    1.616951   -0.591530
     10          8           0        1.159586   -0.709901   -0.047233
     11          1           0        0.669718    1.075118    1.725961
     12          1           0       -0.824557    1.319357   -1.376611
     13          6           0        2.537313   -0.514890   -0.265163
     14          1           0        2.981621   -1.473594   -0.538422
     15          1           0        3.037557   -0.145100    0.638038
     16          1           0        2.717550    0.198438   -1.074957
 ---------------------------------------------------------------------

 SCF Done:  E(RPBE1PBE) =  -560.049969388     A.U. after   12 cycles

 The electronic state is 1-A.
 Alpha  occ. eigenvalues --  -66.25683 -19.20891 -19.19659 -10.27037 -10.21463
 Alpha  occ. eigenvalues --  -10.19611  -5.33332  -3.66850  -3.66778  -3.66575
 Alpha  occ. eigenvalues --   -1.04902  -1.02264  -0.77543  -0.71094  -0.63606
 Alpha  occ. eigenvalues --   -0.56440  -0.51694  -0.47413  -0.47075  -0.45773
 Alpha  occ. eigenvalues --   -0.43505  -0.41316  -0.38429  -0.37174  -0.36412
 Alpha  occ. eigenvalues --   -0.35100  -0.32512  -0.30837  -0.28525
 Alpha virt. eigenvalues --    0.02153   0.04977   0.05798   0.07925   0.09028
 Alpha virt. eigenvalues --    0.09479   0.11050   0.11662   0.11885   0.13047
 Alpha virt. eigenvalues --    0.13618   0.15105   0.16678   0.18106   0.20080

 Mulliken atomic charges:
              1
     1  H    0.129251
     2  C   -0.394347
     3  C   -0.306139
     4  H    0.089735
     5  H    0.142287
     6  H    0.117167
     7  Si   0.550416
     8  H    0.102322
     9  O   -0.525248
    10  O   -0.332231
    11  H   -0.045698
    12  H    0.318470
    13  C   -0.221716
    14  H    0.131473
    15  H    0.119768
    16  H    0.124491
 Sum of Mulliken atomic charges =   0.00000

 Dipole moment (field-independent basis, Debye):
    X=              0.5510    Y=             -0.5865    Z=             -0.5922  Tot=              0.9991
 Quadrupole moment (field-independent basis, Debye-Ang):
   XX=            -40.3980   YY=            -49.7180   ZZ=            -43.2731
   XY=             -0.3175   XZ=              0.6239   YZ=             -0.3639

 Normal termination of Gaussian 09 at Wed Aug  8 13:12:40 2018.
