 Gaussian 09, Revision C.01,
 Gaussian 09:  EM64L-G09RevC.01 23-Sep-2011

 --------------------------------------
 #SP PBE1PBE/Def2TZVP geom=connectivity
 --------------------------------------

 99/5=1,9=1/99;
 -------------
 Structure: 15
 -------------
 Charge =  0 Multiplicity = 1

                         Standard orientation:
 ---------------------------------------------------------------------
 Center     Atomic      Atomic             Coordinates (Angstroms)
 Number     Number       Type             X           Y           Z
 ---------------------------------------------------------------------
      1          1           0       -3.062621   -1.430875   -0.370071
      2          6           0       -2.107490   -0.937177   -0.566631
      3          6           0       -1.501776   -0.356364    0.710417
      4          1           0       -2.299942   -0.159979   -1.312446
      5          1           0       -1.441258   -1.674383   -1.021463
      6          1           0       -2.184154    0.374131    1.158903
      7         14           0        0.146221    0.474337    0.473208
      8          1           0       -1.366894   -1.145583    1.457685
      9          8           0       -0.401927    1.599104   -0.599766
     10          8           0        1.168422   -0.702306   -0.045137
     11          1           0        0.673360    1.092119    1.717086
     12          1           0       -0.869273    1.282994   -1.373697
     13          6           0        2.544829   -0.502307   -0.266854
     14          1           0        2.993137   -1.460714   -0.534566
     15          1           0        3.044946   -0.124203    0.632968
     16          1           0        2.720276    0.206472   -1.081680
 ---------------------------------------------------------------------

 SCF Done:  E(RPBE1PBE) =  -560.047827973     A.U. after   13 cycles

 The electronic state is 1-A.
 Alpha  occ. eigenvalues --  -66.25716 -19.20959 -19.19574 -10.27081 -10.21451
 Alpha  occ. eigenvalues --  -10.19503  -5.33364  -3.66883  -3.66813  -3.66604
 Alpha  occ. eigenvalues --   -1.04947  -1.02240  -0.77490  -0.71139  -0.63581
 Alpha  occ. eigenvalues --   -0.56413  -0.51731  -0.47459  -0.47114  -0.45779
 Alpha  occ. eigenvalues --   -0.43499  -0.41359  -0.38366  -0.37148  -0.36396
 Alpha  occ. eigenvalues --   -0.35040  -0.32555  -0.30883  -0.28349
 Alpha virt. eigenvalues --    0.02077   0.04924   0.05771   0.07889   0.09034
 Alpha virt. eigenvalues --    0.09423   0.11048   0.11691   0.11882   0.13017
 Alpha virt. eigenvalues --    0.13634   0.15097   0.16712   0.18164   0.20159

 Mulliken atomic charges:
              1
     1  H    0.129169
     2  C   -0.393825
     3  C   -0.306573
     4  H    0.088216
     5  H    0.142354
     6  H    0.116831
     7  Si   0.551025
     8  H    0.100825
     9  O   -0.523947
    10  O   -0.331791
    11  H   -0.043966
    12  H    0.317675
    13  C   -0.222285
    14  H    0.131699
    15  H    0.119920
    16  H    0.124672
 Sum of Mulliken atomic charges =   0.00000

 Dipole moment (field-independent basis, Debye):
    X=              0.6214    Y=             -0.5782    Z=             -0.5690  Tot=              1.0219
 Quadrupole moment (field-independent basis, Debye-Ang):
   XX=            -40.3443   YY=            -49.7125   ZZ=            -43.3346
   XY=             -0.1882   XZ=              0.6643   YZ=             -0.2159

 Normal termination of Gaussian 09 at Wed Aug  8 12:47:00 2018.
