 Gaussian 09, Revision C.01,
 Gaussian 09:  EM64L-G09RevC.01 23-Sep-2011

 --------------------------------------
 #SP PBE1PBE/Def2TZVP geom=connectivity
 --------------------------------------

 99/5=1,9=1/99;
 -------------
 Structure: 16
 -------------
 Charge =  0 Multiplicity = 1

                         Standard orientation:
 ---------------------------------------------------------------------
 Center     Atomic      Atomic             Coordinates (Angstroms)
 Number     Number       Type             X           Y           Z
 ---------------------------------------------------------------------
      1          1           0       -3.065620   -1.427188   -0.373862
      2          6           0       -2.109806   -0.934293   -0.569116
      3          6           0       -1.503988   -0.356447    0.709228
      4          1           0       -2.300980   -0.155559   -1.313656
      5          1           0       -1.444249   -1.671501   -1.024932
      6          1           0       -2.185696    0.374079    1.158680
      7         14           0        0.145115    0.472689    0.474237
      8          1           0       -1.370399   -1.147136    1.455173
      9          8           0       -0.391882    1.603866   -0.597670
     10          8           0        1.166143   -0.704271   -0.045699
     11          1           0        0.672418    1.087656    1.719438
     12          1           0       -0.858537    1.292074   -1.374023
     13          6           0        2.542891   -0.505537   -0.266430
     14          1           0        2.990173   -1.464011   -0.535615
     15          1           0        3.043045   -0.129611    0.634284
     16          1           0        2.719567    0.204458   -1.079931
 ---------------------------------------------------------------------

 SCF Done:  E(RPBE1PBE) =  -560.048414367     A.U. after   12 cycles

 The electronic state is 1-A.
 Alpha  occ. eigenvalues --  -66.25706 -19.20941 -19.19599 -10.27069 -10.21457
 Alpha  occ. eigenvalues --  -10.19533  -5.33355  -3.66874  -3.66803  -3.66595
 Alpha  occ. eigenvalues --   -1.04935  -1.02244  -0.77506  -0.71127  -0.63588
 Alpha  occ. eigenvalues --   -0.56416  -0.51720  -0.47447  -0.47103  -0.45781
 Alpha  occ. eigenvalues --   -0.43502  -0.41348  -0.38383  -0.37156  -0.36402
 Alpha  occ. eigenvalues --   -0.35057  -0.32543  -0.30871  -0.28398
 Alpha virt. eigenvalues --    0.02097   0.04938   0.05778   0.07899   0.09032
 Alpha virt. eigenvalues --    0.09437   0.11048   0.11685   0.11880   0.13024
 Alpha virt. eigenvalues --    0.13629   0.15099   0.16703   0.18149   0.20139

 Mulliken atomic charges:
              1
     1  H    0.129198
     2  C   -0.393913
     3  C   -0.306571
     4  H    0.088581
     5  H    0.142358
     6  H    0.116940
     7  Si   0.550841
     8  H    0.101236
     9  O   -0.524251
    10  O   -0.331906
    11  H   -0.044430
    12  H    0.317904
    13  C   -0.222143
    14  H    0.131637
    15  H    0.119879
    16  H    0.124639
 Sum of Mulliken atomic charges =   0.00000

 Dipole moment (field-independent basis, Debye):
    X=              0.6015    Y=             -0.5815    Z=             -0.5738  Tot=              1.0145
 Quadrupole moment (field-independent basis, Debye-Ang):
   XX=            -40.3546   YY=            -49.7160   ZZ=            -43.3216
   XY=             -0.2221   XZ=              0.6552   YZ=             -0.2517

 Normal termination of Gaussian 09 at Wed Aug  8 12:53:29 2018.
