 Gaussian 09, Revision C.01,
 Gaussian 09:  EM64L-G09RevC.01 23-Sep-2011

 --------------------------------------
 #SP PBE1PBE/Def2TZVP geom=connectivity
 --------------------------------------

 99/5=1,9=1/99;
 --------------
 Structure: 119
 --------------
 Charge =  0 Multiplicity = 1

                         Standard orientation:
 ---------------------------------------------------------------------
 Center     Atomic      Atomic             Coordinates (Angstroms)
 Number     Number       Type             X           Y           Z
 ---------------------------------------------------------------------
      1          1           0       -3.381981   -0.966725   -0.503682
      2          6           0       -2.353387   -0.635266   -0.667325
      3          6           0       -1.726231   -0.094259    0.616837
      4          1           0       -2.386778    0.125954   -1.452655
      5          1           0       -1.789084   -1.486693   -1.055712
      6          1           0       -2.307207    0.752718    0.998281
      7         14           0        0.040372    0.461625    0.437029
      8          1           0       -1.751584   -0.858445    1.400958
      9          8           0        0.693347    1.622784   -0.533951
     10          8           0        0.890539   -0.881153    0.022023
     11          1           0        0.597334    1.049599    1.682357
     12          1           0        0.510558    1.567727   -1.473806
     13          6           0        2.290285   -0.905393   -0.132176
     14          1           0        2.596228   -1.932840   -0.336985
     15          1           0        2.799687   -0.566180    0.777881
     16          1           0        2.612531   -0.271411   -0.963629
 ---------------------------------------------------------------------

 SCF Done:  E(RPBE1PBE) =  -560.050588744     A.U. after   12 cycles

 The electronic state is 1-A.
 Alpha  occ. eigenvalues --  -66.25319 -19.20212 -19.19086 -10.25802 -10.22096
 Alpha  occ. eigenvalues --  -10.21998  -5.32990  -3.66567  -3.66384  -3.66225
 Alpha  occ. eigenvalues --   -1.04214  -1.01649  -0.78871  -0.69930  -0.64580
 Alpha  occ. eigenvalues --   -0.56725  -0.50591  -0.46635  -0.46385  -0.46032
 Alpha  occ. eigenvalues --   -0.43553  -0.40859  -0.39426  -0.37028  -0.36825
 Alpha  occ. eigenvalues --   -0.35456  -0.31520  -0.30329  -0.29097
 Alpha virt. eigenvalues --    0.01425   0.05381   0.05912   0.08000   0.08935
 Alpha virt. eigenvalues --    0.09840   0.10194   0.11964   0.12727   0.13372
 Alpha virt. eigenvalues --    0.13977   0.15225   0.15740   0.16112   0.19014

 Mulliken atomic charges:
              1
     1  H    0.130774
     2  C   -0.389796
     3  C   -0.307902
     4  H    0.115078
     5  H    0.144652
     6  H    0.125026
     7  Si   0.529812
     8  H    0.131086
     9  O   -0.515717
    10  O   -0.347382
    11  H   -0.078750
    12  H    0.309228
    13  C   -0.195631
    14  H    0.125614
    15  H    0.115576
    16  H    0.108333
 Sum of Mulliken atomic charges =   0.00000

 Dipole moment (field-independent basis, Debye):
    X=             -0.9972    Y=             -0.4308    Z=             -1.2131  Tot=              1.6284
 Quadrupole moment (field-independent basis, Debye-Ang):
   XX=            -41.8724   YY=            -48.7154   ZZ=            -42.7402
   XY=             -2.4335   XZ=             -1.3435   YZ=             -2.2908

 Normal termination of Gaussian 09 at Wed Aug  8 12:11:43 2018.
