 Gaussian 09, Revision C.01,
 Gaussian 09:  EM64L-G09RevC.01 23-Sep-2011

 --------------------------------------
 #SP PBE1PBE/Def2TZVP geom=connectivity
 --------------------------------------

 99/5=1,9=1/99;
 --------------
 Structure: 105
 --------------
 Charge =  0 Multiplicity = 1

                         Standard orientation:
 ---------------------------------------------------------------------
 Center     Atomic      Atomic             Coordinates (Angstroms)
 Number     Number       Type             X           Y           Z
 ---------------------------------------------------------------------
      1          1           0       -3.344813   -1.021001   -0.509473
      2          6           0       -2.323624   -0.665114   -0.668115
      3          6           0       -1.700907   -0.148148    0.628055
      4          1           0       -2.375509    0.116996   -1.431611
      5          1           0       -1.744815   -1.494179   -1.082653
      6          1           0       -2.296333    0.676339    1.035597
      7         14           0        0.053722    0.446866    0.456419
      8          1           0       -1.707702   -0.934333    1.390509
      9          8           0        0.554437    1.669523   -0.529356
     10          8           0        0.927722   -0.866950    0.000261
     11          1           0        0.605165    1.010490    1.715387
     12          1           0        0.321730    1.613367   -1.457421
     13          6           0        2.326920   -0.859588   -0.160507
     14          1           0        2.651708   -1.874743   -0.395384
     15          1           0        2.834018   -0.536121    0.756543
     16          1           0        2.632842   -0.196422   -0.975192
 ---------------------------------------------------------------------

 SCF Done:  E(RPBE1PBE) =  -560.055608231     A.U. after   12 cycles

 The electronic state is 1-A.
 Alpha  occ. eigenvalues --  -66.25308 -19.20279 -19.19339 -10.25979 -10.21997
 Alpha  occ. eigenvalues --  -10.21711  -5.32977  -3.66536  -3.66377  -3.66227
 Alpha  occ. eigenvalues --   -1.04250  -1.01890  -0.78700  -0.70086  -0.64444
 Alpha  occ. eigenvalues --   -0.56744  -0.50749  -0.46544  -0.46452  -0.46129
 Alpha  occ. eigenvalues --   -0.43567  -0.40858  -0.39364  -0.37082  -0.36754
 Alpha  occ. eigenvalues --   -0.35623  -0.31558  -0.30473  -0.29312
 Alpha virt. eigenvalues --    0.01781   0.05526   0.05994   0.07977   0.08938
 Alpha virt. eigenvalues --    0.10090   0.10263   0.11915   0.12640   0.13572
 Alpha virt. eigenvalues --    0.14225   0.15007   0.15601   0.16121   0.19084

 Mulliken atomic charges:
              1
     1  H    0.130722
     2  C   -0.390724
     3  C   -0.307066
     4  H    0.113062
     5  H    0.143903
     6  H    0.123944
     7  Si   0.530421
     8  H    0.127756
     9  O   -0.518911
    10  O   -0.345229
    11  H   -0.074761
    12  H    0.312230
    13  C   -0.200082
    14  H    0.126612
    15  H    0.115962
    16  H    0.112160
 Sum of Mulliken atomic charges =   0.00000

 Dipole moment (field-independent basis, Debye):
    X=             -0.8229    Y=             -0.4767    Z=             -1.1274  Tot=              1.4750
 Quadrupole moment (field-independent basis, Debye-Ang):
   XX=            -41.7284   YY=            -48.8254   ZZ=            -42.7568
   XY=             -2.2692   XZ=             -1.0452   YZ=             -2.2328

 Normal termination of Gaussian 09 at Wed Aug  8 10:38:27 2018.
