 Gaussian 09, Revision C.01,
 Gaussian 09:  EM64L-G09RevC.01 23-Sep-2011

 --------------------------------------
 #SP PBE1PBE/Def2TZVP geom=connectivity
 --------------------------------------

 99/5=1,9=1/99;
 -------------
 Structure: 11
 -------------
 Charge =  0 Multiplicity = 1

                         Standard orientation:
 ---------------------------------------------------------------------
 Center     Atomic      Atomic             Coordinates (Angstroms)
 Number     Number       Type             X           Y           Z
 ---------------------------------------------------------------------
      1          1           0       -3.051257   -1.444792   -0.354534
      2          6           0       -2.098686   -0.948336   -0.556496
      3          6           0       -1.493366   -0.355205    0.715065
      4          1           0       -2.295904   -0.177656   -1.307809
      5          1           0       -1.429951   -1.685975   -1.006932
      6          1           0       -2.178228    0.375603    1.159235
      7         14           0        0.150485    0.481024    0.468692
      8          1           0       -1.353661   -1.138152    1.468023
      9          8           0       -0.439842    1.580665   -0.608327
     10          8           0        1.177040   -0.694927   -0.042571
     11          1           0        0.677007    1.110522    1.706945
     12          1           0       -0.912406    1.243557   -1.371233
     13          6           0        2.552153   -0.490469   -0.268218
     14          1           0        3.004280   -1.448860   -0.529488
     15          1           0        3.052131   -0.103357    0.627843
     16          1           0        2.723016    0.212915   -1.088673
 ---------------------------------------------------------------------

 SCF Done:  E(RPBE1PBE) =  -560.045472590     A.U. after   13 cycles

 The electronic state is 1-A.
 Alpha  occ. eigenvalues --  -66.25752 -19.21031 -19.19493 -10.27127 -10.21444
 Alpha  occ. eigenvalues --  -10.19398  -5.33399  -3.66919  -3.66851  -3.66635
 Alpha  occ. eigenvalues --   -1.04994  -1.02192  -0.77441  -0.71186  -0.63559
 Alpha  occ. eigenvalues --   -0.56360  -0.51761  -0.47507  -0.47155  -0.45793
 Alpha  occ. eigenvalues --   -0.43497  -0.41399  -0.38309  -0.37117  -0.36376
 Alpha  occ. eigenvalues --   -0.34980  -0.32597  -0.30930  -0.28163
 Alpha virt. eigenvalues --    0.01982   0.04870   0.05743   0.07847   0.09038
 Alpha virt. eigenvalues --    0.09371   0.11044   0.11695   0.11895   0.12994
 Alpha virt. eigenvalues --    0.13649   0.15087   0.16743   0.18210   0.20230

 Mulliken atomic charges:
              1
     1  H    0.129113
     2  C   -0.393305
     3  C   -0.306957
     4  H    0.086768
     5  H    0.142445
     6  H    0.116535
     7  Si   0.551381
     8  H    0.099291
     9  O   -0.522617
    10  O   -0.331373
    11  H   -0.042216
    12  H    0.316891
    13  C   -0.222816
    14  H    0.131935
    15  H    0.120084
    16  H    0.124842
 Sum of Mulliken atomic charges =   0.00000

 Dipole moment (field-independent basis, Debye):
    X=              0.6932    Y=             -0.5733    Z=             -0.5467  Tot=              1.0527
 Quadrupole moment (field-independent basis, Debye-Ang):
   XX=            -40.2924   YY=            -49.7094   ZZ=            -43.4013
   XY=             -0.0510   XZ=              0.6968   YZ=             -0.0599

 Normal termination of Gaussian 09 at Wed Aug  8 12:18:50 2018.
