 Gaussian 09, Revision C.01,
 Gaussian 09:  EM64L-G09RevC.01 23-Sep-2011

 --------------------------------------
 #SP PBE1PBE/Def2TZVP geom=connectivity
 --------------------------------------

 99/5=1,9=1/99;
 --------------
 Structure: 113
 --------------
 Charge =  0 Multiplicity = 1

                         Standard orientation:
 ---------------------------------------------------------------------
 Center     Atomic      Atomic             Coordinates (Angstroms)
 Number     Number       Type             X           Y           Z
 ---------------------------------------------------------------------
      1          1           0       -3.366302   -0.989175   -0.506914
      2          6           0       -2.340743   -0.647285   -0.668122
      3          6           0       -1.715601   -0.117632    0.621742
      4          1           0       -2.381786    0.123606   -1.443594
      5          1           0       -1.770270   -1.489056   -1.068362
      6          1           0       -2.302723    0.719643    1.015011
      7         14           0        0.046089    0.454877    0.445935
      8          1           0       -1.733277   -0.891952    1.396071
      9          8           0        0.634216    1.643962   -0.531856
     10          8           0        0.906358   -0.875520    0.012290
     11          1           0        0.600586    1.031415    1.697693
     12          1           0        0.430565    1.590045   -1.467166
     13          6           0        2.305964   -0.886385   -0.144680
     14          1           0        2.619860   -1.908605   -0.363150
     15          1           0        2.814295   -0.554684    0.768739
     16          1           0        2.621492   -0.239231   -0.968526
 ---------------------------------------------------------------------

 SCF Done:  E(RPBE1PBE) =  -560.052951946     A.U. after   12 cycles

 The electronic state is 1-A.
 Alpha  occ. eigenvalues --  -66.25307 -19.20246 -19.19191 -10.25877 -10.22052
 Alpha  occ. eigenvalues --  -10.21873  -5.32978  -3.66547  -3.66375  -3.66220
 Alpha  occ. eigenvalues --   -1.04230  -1.01761  -0.78796  -0.69995  -0.64521
 Alpha  occ. eigenvalues --   -0.56746  -0.50659  -0.46584  -0.46412  -0.46081
 Alpha  occ. eigenvalues --   -0.43558  -0.40854  -0.39401  -0.37048  -0.36797
 Alpha  occ. eigenvalues --   -0.35543  -0.31531  -0.30399  -0.29190
 Alpha virt. eigenvalues --    0.01596   0.05454   0.05950   0.07988   0.08935
 Alpha virt. eigenvalues --    0.09964   0.10215   0.11961   0.12694   0.13488
 Alpha virt. eigenvalues --    0.14032   0.15137   0.15688   0.16105   0.19045

 Mulliken atomic charges:
              1
     1  H    0.130758
     2  C   -0.390202
     3  C   -0.307561
     4  H    0.114262
     5  H    0.144311
     6  H    0.124529
     7  Si   0.529937
     8  H    0.129656
     9  O   -0.516966
    10  O   -0.346513
    11  H   -0.077056
    12  H    0.310600
    13  C   -0.197521
    14  H    0.126064
    15  H    0.115711
    16  H    0.109994
 Sum of Mulliken atomic charges =   0.00000

 Dipole moment (field-independent basis, Debye):
    X=             -0.9221    Y=             -0.4483    Z=             -1.1773  Tot=              1.5612
 Quadrupole moment (field-independent basis, Debye-Ang):
   XX=            -41.8162   YY=            -48.7529   ZZ=            -42.7442
   XY=             -2.3618   XZ=             -1.2198   YZ=             -2.2745

 Normal termination of Gaussian 09 at Wed Aug  8 11:33:24 2018.
