 Gaussian 09, Revision C.01,
 Gaussian 09:  EM64L-G09RevC.01 23-Sep-2011

 --------------------------------------
 #SP PBE1PBE/Def2TZVP geom=connectivity
 --------------------------------------

 99/5=1,9=1/99;
 -------------
 Structure: 10
 -------------
 Charge =  0 Multiplicity = 1

                         Standard orientation:
 ---------------------------------------------------------------------
 Center     Atomic      Atomic             Coordinates (Angstroms)
 Number     Number       Type             X           Y           Z
 ---------------------------------------------------------------------
      1          1           0       -3.048590   -1.447950   -0.350891
      2          6           0       -2.096615   -0.950865   -0.554111
      3          6           0       -1.491382   -0.354901    0.716167
      4          1           0       -2.294939   -0.181696   -1.306680
      5          1           0       -1.427306   -1.688597   -1.003541
      6          1           0       -2.176813    0.375972    1.159350
      7         14           0        0.151504    0.482592    0.467658
      8          1           0       -1.350559   -1.136393    1.470426
      9          8           0       -0.448807    1.576275   -0.610491
     10          8           0        1.179060   -0.693188   -0.041986
     11          1           0        0.677889    1.114784    1.704596
     12          1           0       -0.922334    1.233896   -1.369607
     13          6           0        2.553867   -0.487706   -0.268559
     14          1           0        3.006875   -1.446083   -0.528350
     15          1           0        3.053816   -0.098522    0.626621
     16          1           0        2.723667    0.214427   -1.090306
 ---------------------------------------------------------------------

 SCF Done:  E(RPBE1PBE) =  -560.044887964     A.U. after   13 cycles

 The electronic state is 1-A.
 Alpha  occ. eigenvalues --  -66.25766 -19.21050 -19.19465 -10.27139 -10.21444
 Alpha  occ. eigenvalues --  -10.19376  -5.33412  -3.66932  -3.66864  -3.66647
 Alpha  occ. eigenvalues --   -1.05007  -1.02193  -0.77432  -0.71199  -0.63557
 Alpha  occ. eigenvalues --   -0.56352  -0.51771  -0.47519  -0.47166  -0.45799
 Alpha  occ. eigenvalues --   -0.43499  -0.41412  -0.38298  -0.37111  -0.36372
 Alpha  occ. eigenvalues --   -0.34967  -0.32608  -0.30943  -0.28121
 Alpha virt. eigenvalues --    0.01963   0.04861   0.05734   0.07836   0.09042
 Alpha virt. eigenvalues --    0.09358   0.11043   0.11693   0.11899   0.12988
 Alpha virt. eigenvalues --    0.13653   0.15084   0.16749   0.18218   0.20247

 Mulliken atomic charges:
              1
     1  H    0.129103
     2  C   -0.393175
     3  C   -0.307081
     4  H    0.086511
     5  H    0.142467
     6  H    0.116487
     7  Si   0.551447
     8  H    0.098936
     9  O   -0.522153
    10  O   -0.331258
    11  H   -0.041770
    12  H    0.316417
    13  C   -0.222946
    14  H    0.131995
    15  H    0.120123
    16  H    0.124898
 Sum of Mulliken atomic charges =   0.00000

 Dipole moment (field-independent basis, Debye):
    X=              0.7108    Y=             -0.5736    Z=             -0.5386  Tot=              1.0604
 Quadrupole moment (field-independent basis, Debye-Ang):
   XX=            -40.2779   YY=            -49.7090   ZZ=            -43.4218
   XY=             -0.0158   XZ=              0.7014   YZ=             -0.0182

 Normal termination of Gaussian 09 at Wed Aug  8 11:08:01 2018.
