 Gaussian 09, Revision C.01,
 Gaussian 09:  EM64L-G09RevC.01 23-Sep-2011

 --------------------------------------
 #SP PBE1PBE/Def2TZVP geom=connectivity
 --------------------------------------

 99/5=1,9=1/99;
 --------------
 Structure: 109
 --------------
 Charge =  0 Multiplicity = 1

                         Standard orientation:
 ---------------------------------------------------------------------
 Center     Atomic      Atomic             Coordinates (Angstroms)
 Number     Number       Type             X           Y           Z
 ---------------------------------------------------------------------
      1          1           0       -3.355758   -1.004674   -0.508432
      2          6           0       -2.332313   -0.655876   -0.668274
      3          6           0       -1.708386   -0.132897    0.624898
      4          1           0       -2.378632    0.120826   -1.437626
      5          1           0       -1.757742   -1.491325   -1.075832
      6          1           0       -2.299589    0.698019    1.025472
      7         14           0        0.049887    0.450688    0.451320
      8          1           0       -1.720767   -0.913342    1.393156
      9          8           0        0.594877    1.657466   -0.530512
     10          8           0        0.916897   -0.871504    0.006156
     11          1           0        0.602862    1.020458    1.706845
     12          1           0        0.376404    1.602138   -1.462032
     13          6           0        2.316332   -0.873413   -0.152693
     14          1           0        2.635565   -1.892143   -0.379572
     15          1           0        2.824041   -0.546074    0.762644
     16          1           0        2.627195   -0.218096   -0.971846
 ---------------------------------------------------------------------

 SCF Done:  E(RPBE1PBE) =  -560.054337841     A.U. after   12 cycles

 The electronic state is 1-A.
 Alpha  occ. eigenvalues --  -66.25309 -19.20263 -19.19267 -10.25929 -10.22026
 Alpha  occ. eigenvalues --  -10.21795  -5.32979  -3.66542  -3.66377  -3.66225
 Alpha  occ. eigenvalues --   -1.04242  -1.01830  -0.78750  -0.70042  -0.64484
 Alpha  occ. eigenvalues --   -0.56741  -0.50705  -0.46561  -0.46434  -0.46109
 Alpha  occ. eigenvalues --   -0.43565  -0.40857  -0.39387  -0.37063  -0.36778
 Alpha  occ. eigenvalues --   -0.35585  -0.31545  -0.30442  -0.29253
 Alpha virt. eigenvalues --    0.01692   0.05492   0.05974   0.07981   0.08937
 Alpha virt. eigenvalues --    0.10031   0.10233   0.11942   0.12668   0.13543
 Alpha virt. eigenvalues --    0.14109   0.15074   0.15645   0.16108   0.19064

 Mulliken atomic charges:
              1
     1  H    0.130750
     2  C   -0.390479
     3  C   -0.307287
     4  H    0.113693
     5  H    0.144107
     6  H    0.124248
     7  Si   0.530027
     8  H    0.128725
     9  O   -0.517856
    10  O   -0.345870
    11  H   -0.075901
    12  H    0.311345
    13  C   -0.198802
    14  H    0.126348
    15  H    0.115837
    16  H    0.111114
 Sum of Mulliken atomic charges =   0.00000

 Dipole moment (field-independent basis, Debye):
    X=             -0.8739    Y=             -0.4647    Z=             -1.1516  Tot=              1.5185
 Quadrupole moment (field-independent basis, Debye-Ang):
   XX=            -41.7727   YY=            -48.7924   ZZ=            -42.7519
   XY=             -2.3187   XZ=             -1.1328   YZ=             -2.2527

 Normal termination of Gaussian 09 at Wed Aug  8 11:00:52 2018.
