 Gaussian 09, Revision C.01,
 Gaussian 09:  EM64L-G09RevC.01 23-Sep-2011

 --------------------------------------
 #SP PBE1PBE/Def2TZVP geom=connectivity
 --------------------------------------

 99/5=1,9=1/99;
 -------------
 Structure: 12
 -------------
 Charge =  0 Multiplicity = 1

                         Standard orientation:
 ---------------------------------------------------------------------
 Center     Atomic      Atomic             Coordinates (Angstroms)
 Number     Number       Type             X           Y           Z
 ---------------------------------------------------------------------
      1          1           0       -3.054231   -1.441241   -0.358517
      2          6           0       -2.100990   -0.945516   -0.559107
      3          6           0       -1.495581   -0.355461    0.713842
      4          1           0       -2.296961   -0.173207   -1.309072
      5          1           0       -1.432900   -1.683089   -1.010605
      6          1           0       -2.179803    0.375312    1.159055
      7         14           0        0.149354    0.479318    0.469800
      8          1           0       -1.357139   -1.139972    1.465403
      9          8           0       -0.429905    1.585563   -0.606140
     10          8           0        1.174785   -0.696868   -0.043176
     11          1           0        0.676024    1.105893    1.709471
     12          1           0       -0.900931    1.253270   -1.371752
     13          6           0        2.550240   -0.493586   -0.267798
     14          1           0        3.001378   -1.452012   -0.530643
     15          1           0        3.050245   -0.108727    0.629219
     16          1           0        2.722305    0.211129   -1.086859
 ---------------------------------------------------------------------

 SCF Done:  E(RPBE1PBE) =  -560.046118983     A.U. after   13 cycles

 The electronic state is 1-A.
 Alpha  occ. eigenvalues --  -66.25740 -19.21012 -19.19517 -10.27115 -10.21447
 Alpha  occ. eigenvalues --  -10.19426  -5.33388  -3.66907  -3.66839  -3.66625
 Alpha  occ. eigenvalues --   -1.04982  -1.02211  -0.77455  -0.71174  -0.63565
 Alpha  occ. eigenvalues --   -0.56373  -0.51754  -0.47495  -0.47145  -0.45791
 Alpha  occ. eigenvalues --   -0.43499  -0.41387  -0.38330  -0.37127  -0.36384
 Alpha  occ. eigenvalues --   -0.34997  -0.32587  -0.30919  -0.28214
 Alpha virt. eigenvalues --    0.02010   0.04885   0.05750   0.07859   0.09038
 Alpha virt. eigenvalues --    0.09384   0.11045   0.11695   0.11890   0.12999
 Alpha virt. eigenvalues --    0.13644   0.15090   0.16735   0.18198   0.20212

 Mulliken atomic charges:
              1
     1  H    0.129132
     2  C   -0.393483
     3  C   -0.306891
     4  H    0.087175
     5  H    0.142430
     6  H    0.116620
     7  Si   0.551181
     8  H    0.099703
     9  O   -0.522785
    10  O   -0.331488
    11  H   -0.042708
    12  H    0.317077
    13  C   -0.222681
    14  H    0.131874
    15  H    0.120046
    16  H    0.124798
 Sum of Mulliken atomic charges =   0.00000

 Dipole moment (field-independent basis, Debye):
    X=              0.6744    Y=             -0.5755    Z=             -0.5526  Tot=              1.0447
 Quadrupole moment (field-independent basis, Debye-Ang):
   XX=            -40.3058   YY=            -49.7123   ZZ=            -43.3848
   XY=             -0.0859   XZ=              0.6875   YZ=             -0.0989

 Normal termination of Gaussian 09 at Wed Aug  8 12:25:54 2018.
