 Gaussian 09, Revision C.01,
 Gaussian 09:  EM64L-G09RevC.01 23-Sep-2011

 --------------------------------------
 #SP PBE1PBE/Def2TZVP geom=connectivity
 --------------------------------------

 99/5=1,9=1/99;
 --------------
 Structure: 118
 --------------
 Charge =  0 Multiplicity = 1

                         Standard orientation:
 ---------------------------------------------------------------------
 Center     Atomic      Atomic             Coordinates (Angstroms)
 Number     Number       Type             X           Y           Z
 ---------------------------------------------------------------------
      1          1           0       -3.379176   -0.970662   -0.504418
      2          6           0       -2.351111   -0.637323   -0.667565
      3          6           0       -1.724343   -0.098537    0.617720
      4          1           0       -2.385840    0.125757   -1.451030
      5          1           0       -1.785700   -1.486987   -1.058194
      6          1           0       -2.306423    0.746670    1.001399
      7         14           0        0.041402    0.460331    0.438730
      8          1           0       -1.748353   -0.864664    1.399986
      9          8           0        0.682609    1.626815   -0.533612
     10          8           0        0.893377   -0.880205    0.020200
     11          1           0        0.597897    1.046077    1.685317
     12          1           0        0.497191    1.572209   -1.471909
     13          6           0        2.293110   -0.902051   -0.134481
     14          1           0        2.600471   -1.928553   -0.341882
     15          1           0        2.802300   -0.564318    0.776245
     16          1           0        2.614186   -0.265583   -0.964486
 ---------------------------------------------------------------------

 SCF Done:  E(RPBE1PBE) =  -560.051047382     A.U. after   12 cycles

 The electronic state is 1-A.
 Alpha  occ. eigenvalues --  -66.25318 -19.20209 -19.19106 -10.25816 -10.22087
 Alpha  occ. eigenvalues --  -10.21975  -5.32989  -3.66565  -3.66384  -3.66225
 Alpha  occ. eigenvalues --   -1.04226  -1.01682  -0.78857  -0.69943  -0.64570
 Alpha  occ. eigenvalues --   -0.56746  -0.50608  -0.46625  -0.46390  -0.46043
 Alpha  occ. eigenvalues --   -0.43554  -0.40858  -0.39420  -0.37032  -0.36821
 Alpha  occ. eigenvalues --   -0.35476  -0.31522  -0.30344  -0.29115
 Alpha virt. eigenvalues --    0.01465   0.05395   0.05922   0.07997   0.08938
 Alpha virt. eigenvalues --    0.09865   0.10198   0.11968   0.12722   0.13400
 Alpha virt. eigenvalues --    0.13982   0.15210   0.15732   0.16109   0.19020

 Mulliken atomic charges:
              1
     1  H    0.130767
     2  C   -0.389872
     3  C   -0.307838
     4  H    0.114960
     5  H    0.144579
     6  H    0.124930
     7  Si   0.529969
     8  H    0.130822
     9  O   -0.515873
    10  O   -0.347238
    11  H   -0.078450
    12  H    0.309308
    13  C   -0.195990
    14  H    0.125704
    15  H    0.115607
    16  H    0.108616
 Sum of Mulliken atomic charges =   0.00000

 Dipole moment (field-independent basis, Debye):
    X=             -0.9821    Y=             -0.4342    Z=             -1.2059  Tot=              1.6147
 Quadrupole moment (field-independent basis, Debye-Ang):
   XX=            -41.8601   YY=            -48.7208   ZZ=            -42.7420
   XY=             -2.4186   XZ=             -1.3240   YZ=             -2.2877

 Normal termination of Gaussian 09 at Wed Aug  8 12:05:15 2018.
