 Gaussian 09, Revision C.01,
 Gaussian 09:  EM64L-G09RevC.01 23-Sep-2011

 --------------------------------------
 #SP PBE1PBE/Def2TZVP geom=connectivity
 --------------------------------------

 99/5=1,9=1/99;
 --------------
 Structure: 117
 --------------
 Charge =  0 Multiplicity = 1

                         Standard orientation:
 ---------------------------------------------------------------------
 Center     Atomic      Atomic             Coordinates (Angstroms)
 Number     Number       Type             X           Y           Z
 ---------------------------------------------------------------------
      1          1           0       -3.376704   -0.974296   -0.504752
      2          6           0       -2.349119   -0.639332   -0.667590
      3          6           0       -1.722648   -0.102145    0.618509
      4          1           0       -2.385069    0.125166   -1.449616
      5          1           0       -1.782737   -1.487537   -1.059980
      6          1           0       -2.305694    0.741595    1.003946
      7         14           0        0.042323    0.459325    0.440025
      8          1           0       -1.745433   -0.869764    1.399349
      9          8           0        0.673275    1.630116   -0.533280
     10          8           0        0.895890   -0.879330    0.018729
     11          1           0        0.598449    1.043453    1.687535
     12          1           0        0.483878    1.575800   -1.471025
     13          6           0        2.295602   -0.899088   -0.136421
     14          1           0        2.604218   -1.924805   -0.345835
     15          1           0        2.804639   -0.562404    0.774779
     16          1           0        2.615605   -0.260658   -0.965332
 ---------------------------------------------------------------------

 SCF Done:  E(RPBE1PBE) =  -560.051423457     A.U. after   12 cycles

 The electronic state is 1-A.
 Alpha  occ. eigenvalues --  -66.25313 -19.20219 -19.19121 -10.25828 -10.22080
 Alpha  occ. eigenvalues --  -10.21955  -5.32984  -3.66558  -3.66379  -3.66221
 Alpha  occ. eigenvalues --   -1.04228  -1.01700  -0.78845  -0.69952  -0.64560
 Alpha  occ. eigenvalues --   -0.56748  -0.50618  -0.46617  -0.46394  -0.46050
 Alpha  occ. eigenvalues --   -0.43555  -0.40856  -0.39421  -0.37034  -0.36816
 Alpha  occ. eigenvalues --   -0.35492  -0.31524  -0.30354  -0.29129
 Alpha virt. eigenvalues --    0.01490   0.05409   0.05928   0.07996   0.08938
 Alpha virt. eigenvalues --    0.09885   0.10201   0.11968   0.12717   0.13418
 Alpha virt. eigenvalues --    0.13988   0.15199   0.15725   0.16108   0.19025

 Mulliken atomic charges:
              1
     1  H    0.130767
     2  C   -0.389935
     3  C   -0.307810
     4  H    0.114815
     5  H    0.144530
     6  H    0.124851
     7  Si   0.529857
     8  H    0.130601
     9  O   -0.515918
    10  O   -0.347108
    11  H   -0.078227
    12  H    0.309569
    13  C   -0.196279
    14  H    0.125775
    15  H    0.115625
    16  H    0.108888
 Sum of Mulliken atomic charges =   0.00000

 Dipole moment (field-independent basis, Debye):
    X=             -0.9710    Y=             -0.4362    Z=             -1.2013  Tot=              1.6051
 Quadrupole moment (field-independent basis, Debye-Ang):
   XX=            -41.8528   YY=            -48.7249   ZZ=            -42.7431
   XY=             -2.4082   XZ=             -1.3031   YZ=             -2.2867

 Normal termination of Gaussian 09 at Wed Aug  8 11:58:52 2018.
