 Gaussian 09, Revision C.01,
 Gaussian 09:  EM64L-G09RevC.01 23-Sep-2011

 --------------------------------------
 #SP PBE1PBE/Def2TZVP geom=connectivity
 --------------------------------------

 99/5=1,9=1/99;
 --------------
 Structure: 115
 --------------
 Charge =  0 Multiplicity = 1

                         Standard orientation:
 ---------------------------------------------------------------------
 Center     Atomic      Atomic             Coordinates (Angstroms)
 Number     Number       Type             X           Y           Z
 ---------------------------------------------------------------------
      1          1           0       -3.371630   -0.981420   -0.506081
      2          6           0       -2.345019   -0.643047   -0.668014
      3          6           0       -1.719199   -0.109965    0.620108
      4          1           0       -2.383424    0.124833   -1.446601
      5          1           0       -1.776654   -1.488011   -1.064509
      6          1           0       -2.304221    0.730521    1.009640
      7         14           0        0.044194    0.456909    0.443116
      8          1           0       -1.739522   -0.881115    1.397529
      9          8           0        0.654184    1.637653   -0.532377
     10          8           0        0.901008   -0.877619    0.015362
     11          1           0        0.599524    1.036920    1.692899
     12          1           0        0.457203    1.583631   -1.468844
     13          6           0        2.300675   -0.893025   -0.140678
     14          1           0        2.611846   -1.916988   -0.354842
     15          1           0        2.809365   -0.559078    0.771722
     16          1           0        2.618524   -0.250071   -0.966917
 ---------------------------------------------------------------------

 SCF Done:  E(RPBE1PBE) =  -560.052205133     A.U. after   12 cycles

 The electronic state is 1-A.
 Alpha  occ. eigenvalues --  -66.25316 -19.20231 -19.19160 -10.25853 -10.22067
 Alpha  occ. eigenvalues --  -10.21917  -5.32986  -3.66557  -3.66382  -3.66225
 Alpha  occ. eigenvalues --   -1.04225  -1.01727  -0.78823  -0.69975  -0.64542
 Alpha  occ. eigenvalues --   -0.56737  -0.50637  -0.46602  -0.46403  -0.46067
 Alpha  occ. eigenvalues --   -0.43558  -0.40857  -0.39408  -0.37040  -0.36809
 Alpha  occ. eigenvalues --   -0.35512  -0.31529  -0.30380  -0.29161
 Alpha virt. eigenvalues --    0.01542   0.05430   0.05939   0.07991   0.08936
 Alpha virt. eigenvalues --    0.09922   0.10206   0.11964   0.12705   0.13453
 Alpha virt. eigenvalues --    0.14005   0.15167   0.15706   0.16104   0.19034

 Mulliken atomic charges:
              1
     1  H    0.130768
     2  C   -0.390068
     3  C   -0.307644
     4  H    0.114556
     5  H    0.144423
     6  H    0.124708
     7  Si   0.529881
     8  H    0.130144
     9  O   -0.516624
    10  O   -0.346780
    11  H   -0.077591
    12  H    0.310046
    13  C   -0.196893
    14  H    0.125922
    15  H    0.115668
    16  H    0.109484
 Sum of Mulliken atomic charges =   0.00000

 Dipole moment (field-independent basis, Debye):
    X=             -0.9482    Y=             -0.4442    Z=             -1.1881  Tot=              1.5836
 Quadrupole moment (field-independent basis, Debye-Ang):
   XX=            -41.8342   YY=            -48.7421   ZZ=            -42.7448
   XY=             -2.3883   XZ=             -1.2608   YZ=             -2.2801

 Normal termination of Gaussian 09 at Wed Aug  8 11:46:09 2018.
