 Gaussian 09, Revision C.01,
 Gaussian 09:  EM64L-G09RevC.01 23-Sep-2011

 --------------------------------------
 #SP PBE1PBE/Def2TZVP geom=connectivity
 --------------------------------------

 99/5=1,9=1/99;
 -------------
 Structure: 17
 -------------
 Charge =  0 Multiplicity = 1

                         Standard orientation:
 ---------------------------------------------------------------------
 Center     Atomic      Atomic             Coordinates (Angstroms)
 Number     Number       Type             X           Y           Z
 ---------------------------------------------------------------------
      1          1           0       -3.068400   -1.423737   -0.377368
      2          6           0       -2.111951   -0.931597   -0.571412
      3          6           0       -1.506042   -0.356494    0.708125
      4          1           0       -2.301932   -0.151448   -1.314776
      5          1           0       -1.447020   -1.668811   -1.028131
      6          1           0       -2.187129    0.374068    1.158462
      7         14           0        0.144087    0.471176    0.475186
      8          1           0       -1.373661   -1.148535    1.452849
      9          8           0       -0.382747    1.608099   -0.595589
     10          8           0        1.164025   -0.706083   -0.046210
     11          1           0        0.671537    1.083542    1.721607
     12          1           0       -0.847028    1.301158   -1.375622
     13          6           0        2.541091   -0.508531   -0.266025
     14          1           0        2.987418   -1.467068   -0.536565
     15          1           0        3.041273   -0.134620    0.635511
     16          1           0        2.718912    0.202578   -1.078301
 ---------------------------------------------------------------------

 SCF Done:  E(RPBE1PBE) =  -560.048924397     A.U. after   12 cycles

 The electronic state is 1-A.
 Alpha  occ. eigenvalues --  -66.25697 -19.20924 -19.19622 -10.27059 -10.21457
 Alpha  occ. eigenvalues --  -10.19556  -5.33346  -3.66865  -3.66794  -3.66587
 Alpha  occ. eigenvalues --   -1.04923  -1.02246  -0.77516  -0.71116  -0.63592
 Alpha  occ. eigenvalues --   -0.56423  -0.51711  -0.47436  -0.47094  -0.45775
 Alpha  occ. eigenvalues --   -0.43501  -0.41336  -0.38397  -0.37161  -0.36404
 Alpha  occ. eigenvalues --   -0.35070  -0.32533  -0.30859  -0.28437
 Alpha virt. eigenvalues --    0.02114   0.04949   0.05785   0.07908   0.09029
 Alpha virt. eigenvalues --    0.09451   0.11049   0.11679   0.11881   0.13031
 Alpha virt. eigenvalues --    0.13625   0.15101   0.16695   0.18136   0.20120

 Mulliken atomic charges:
              1
     1  H    0.129210
     2  C   -0.394111
     3  C   -0.306328
     4  H    0.088952
     5  H    0.142323
     6  H    0.116991
     7  Si   0.550705
     8  H    0.101574
     9  O   -0.524670
    10  O   -0.332014
    11  H   -0.044842
    12  H    0.318207
    13  C   -0.222003
    14  H    0.131584
    15  H    0.119844
    16  H    0.124578
 Sum of Mulliken atomic charges =   0.00000

 Dipole moment (field-independent basis, Debye):
    X=              0.5861    Y=             -0.5821    Z=             -0.5814  Tot=              1.0102
 Quadrupole moment (field-independent basis, Debye-Ang):
   XX=            -40.3722   YY=            -49.7162   ZZ=            -43.3016
   XY=             -0.2533   XZ=              0.6453   YZ=             -0.2912

 Normal termination of Gaussian 09 at Wed Aug  8 12:59:53 2018.
