 Gaussian 09, Revision C.01,
 Gaussian 09:  EM64L-G09RevC.01 23-Sep-2011

 --------------------------------------
 #SP PBE1PBE/Def2TZVP geom=connectivity
 --------------------------------------

 99/5=1,9=1/99;
 --------------
 Structure: 106
 --------------
 Charge =  0 Multiplicity = 1

                         Standard orientation:
 ---------------------------------------------------------------------
 Center     Atomic      Atomic             Coordinates (Angstroms)
 Number     Number       Type             X           Y           Z
 ---------------------------------------------------------------------
      1          1           0       -3.347419   -1.017128   -0.509167
      2          6           0       -2.325690   -0.662933   -0.668117
      3          6           0       -1.702703   -0.144435    0.627311
      4          1           0       -2.376246    0.117840   -1.433069
      5          1           0       -1.747878   -1.493552   -1.080931
      6          1           0       -2.297135    0.681616    1.033132
      7         14           0        0.052798    0.447857    0.455176
      8          1           0       -1.710833   -0.929204    1.391208
      9          8           0        0.564013    1.666409   -0.529793
     10          8           0        0.925151   -0.867992    0.001734
     11          1           0        0.604588    1.013043    1.713292
     12          1           0        0.335281    1.610160   -1.458414
     13          6           0        2.324411   -0.862843   -0.158571
     14          1           0        2.647887   -1.878873   -0.391469
     15          1           0        2.831643   -0.538383    0.758054
     16          1           0        2.631517   -0.201598   -0.974372
 ---------------------------------------------------------------------

 SCF Done:  E(RPBE1PBE) =  -560.055314354     A.U. after   12 cycles

 The electronic state is 1-A.
 Alpha  occ. eigenvalues --  -66.25305 -19.20273 -19.19320 -10.25967 -10.22003
 Alpha  occ. eigenvalues --  -10.21730  -5.32975  -3.66535  -3.66375  -3.66224
 Alpha  occ. eigenvalues --   -1.04255  -1.01884  -0.78711  -0.70075  -0.64453
 Alpha  occ. eigenvalues --   -0.56754  -0.50741  -0.46547  -0.46448  -0.46125
 Alpha  occ. eigenvalues --   -0.43566  -0.40857  -0.39373  -0.37078  -0.36760
 Alpha  occ. eigenvalues --   -0.35620  -0.31554  -0.30466  -0.29298
 Alpha virt. eigenvalues --    0.01764   0.05519   0.05990   0.07978   0.08939
 Alpha virt. eigenvalues --    0.10078   0.10256   0.11923   0.12648   0.13570
 Alpha virt. eigenvalues --    0.14196   0.15025   0.15612   0.16118   0.19080

 Mulliken atomic charges:
              1
     1  H    0.130728
     2  C   -0.390677
     3  C   -0.307135
     4  H    0.113222
     5  H    0.143948
     6  H    0.124007
     7  Si   0.530304
     8  H    0.127982
     9  O   -0.518458
    10  O   -0.345407
    11  H   -0.075061
    12  H    0.311958
    13  C   -0.199783
    14  H    0.126552
    15  H    0.115933
    16  H    0.111887
 Sum of Mulliken atomic charges =   0.00000

 Dipole moment (field-independent basis, Debye):
    X=             -0.8341    Y=             -0.4734    Z=             -1.1334  Tot=              1.4847
 Quadrupole moment (field-independent basis, Debye-Ang):
   XX=            -41.7389   YY=            -48.8167   ZZ=            -42.7556
   XY=             -2.2792   XZ=             -1.0675   YZ=             -2.2365

 Normal termination of Gaussian 09 at Wed Aug  8 10:43:19 2018.
