 Gaussian 09, Revision C.01,
 Gaussian 09:  EM64L-G09RevC.01 23-Sep-2011

 --------------------------------------
 #SP PBE1PBE/Def2TZVP geom=connectivity
 --------------------------------------

 99/5=1,9=1/99;
 -------------
 Structure: 21
 -------------
 Charge =  0 Multiplicity = 1

                         Standard orientation:
 ---------------------------------------------------------------------
 Center     Atomic      Atomic             Coordinates (Angstroms)
 Number     Number       Type             X           Y           Z
 ---------------------------------------------------------------------
      1          1           0       -3.080090   -1.409253   -0.391100
      2          6           0       -2.120947   -0.920549   -0.580474
      3          6           0       -1.514674   -0.355944    0.703558
      4          1           0       -2.305828   -0.135108   -1.319538
      5          1           0       -1.458695   -1.658213   -1.040347
      6          1           0       -2.193102    0.375183    1.156981
      7         14           0        0.139813    0.465195    0.478547
      8          1           0       -1.387451   -1.153010    1.443808
      9          8           0       -0.343972    1.625576   -0.587510
     10          8           0        1.155089   -0.713816   -0.047966
     11          1           0        0.667868    1.067633    1.729542
     12          1           0       -0.801917    1.336685   -1.378400
     13          6           0        2.533486   -0.521549   -0.264092
     14          1           0        2.975737   -1.480589   -0.539503
     15          1           0        3.033775   -0.155384    0.640559
     16          1           0        2.716201    0.193504   -1.071807
 ---------------------------------------------------------------------

 SCF Done:  E(RPBE1PBE) =  -560.050962491     A.U. after   12 cycles

 The electronic state is 1-A.
 Alpha  occ. eigenvalues --  -66.25663 -19.20857 -19.19706 -10.27015 -10.21471
 Alpha  occ. eigenvalues --  -10.19664  -5.33313  -3.66830  -3.66759  -3.66558
 Alpha  occ. eigenvalues --   -1.04880  -1.02269  -0.77569  -0.71072  -0.63619
 Alpha  occ. eigenvalues --   -0.56446  -0.51673  -0.47390  -0.47056  -0.45772
 Alpha  occ. eigenvalues --   -0.43508  -0.41292  -0.38464  -0.37185  -0.36422
 Alpha  occ. eigenvalues --   -0.35129  -0.32490  -0.30815  -0.28608
 Alpha virt. eigenvalues --    0.02181   0.05004   0.05814   0.07942   0.09025
 Alpha virt. eigenvalues --    0.09508   0.11053   0.11640   0.11891   0.13065
 Alpha virt. eigenvalues --    0.13610   0.15110   0.16661   0.18073   0.20039

 Mulliken atomic charges:
              1
     1  H    0.129299
     2  C   -0.394563
     3  C   -0.305977
     4  H    0.090473
     5  H    0.142257
     6  H    0.117346
     7  Si   0.550027
     8  H    0.103052
     9  O   -0.525795
    10  O   -0.332478
    11  H   -0.046605
    12  H    0.318931
    13  C   -0.221413
    14  H    0.131362
    15  H    0.119700
    16  H    0.124384
 Sum of Mulliken atomic charges =   0.00000

 Dipole moment (field-independent basis, Debye):
    X=              0.5156    Y=             -0.5907    Z=             -0.6059  Tot=              0.9909
 Quadrupole moment (field-independent basis, Debye-Ang):
   XX=            -40.4257   YY=            -49.7195   ZZ=            -43.2442
   XY=             -0.3817   XZ=              0.6019   YZ=             -0.4381

 Normal termination of Gaussian 09 at Wed Aug  8 13:32:46 2018.
