 Gaussian 09, Revision C.01,
 Gaussian 09:  EM64L-G09RevC.01 23-Sep-2011

 --------------------------------------
 #SP PBE1PBE/Def2TZVP geom=connectivity
 --------------------------------------

 99/5=1,9=1/99;
 -------------
 Structure: 28
 -------------
 Charge =  0 Multiplicity = 1

                         Standard orientation:
 ---------------------------------------------------------------------
 Center     Atomic      Atomic             Coordinates (Angstroms)
 Number     Number       Type             X           Y           Z
 ---------------------------------------------------------------------
      1          1           0       -3.101380   -1.381557   -0.413374
      2          6           0       -2.137254   -0.899840   -0.595196
      3          6           0       -1.530182   -0.352391    0.695869
      4          1           0       -2.312606   -0.106097   -1.327683
      5          1           0       -1.480148   -1.639258   -1.059612
      6          1           0       -2.203500    0.380695    1.153723
      7         14           0        0.132366    0.455777    0.483682
      8          1           0       -1.412595   -1.157247    1.429250
      9          8           0       -0.273927    1.652142   -0.575011
     10          8           0        1.138727   -0.727536   -0.050243
     11          1           0        0.661673    1.042061    1.741802
     12          1           0       -0.720822    1.395443   -1.382558
     13          6           0        2.519508   -0.545777   -0.260154
     14          1           0        2.954018   -1.506237   -0.542840
     15          1           0        3.020072   -0.192357    0.649401
     16          1           0        2.711329    0.174886   -1.060741
 ---------------------------------------------------------------------

 SCF Done:  E(RPBE1PBE) =  -560.054003587     A.U. after   12 cycles

 The electronic state is 1-A.
 Alpha  occ. eigenvalues --  -66.25609 -19.20733 -19.19826 -10.26933 -10.21499
 Alpha  occ. eigenvalues --  -10.19852  -5.33260  -3.66777  -3.66701  -3.66511
 Alpha  occ. eigenvalues --   -1.04802  -1.02312  -0.77664  -0.70990  -0.63672
 Alpha  occ. eigenvalues --   -0.56504  -0.51608  -0.47307  -0.46986  -0.45776
 Alpha  occ. eigenvalues --   -0.43518  -0.41225  -0.38568  -0.37217  -0.36453
 Alpha  occ. eigenvalues --   -0.35231  -0.32405  -0.30731  -0.28880
 Alpha virt. eigenvalues --    0.02277   0.05103   0.05861   0.07991   0.09017
 Alpha virt. eigenvalues --    0.09623   0.11065   0.11547   0.11933   0.13138
 Alpha virt. eigenvalues --    0.13597   0.15125   0.16602   0.17942   0.19893

 Mulliken atomic charges:
              1
     1  H    0.129451
     2  C   -0.395051
     3  C   -0.305570
     4  H    0.093072
     5  H    0.142180
     6  H    0.117953
     7  Si   0.548886
     8  H    0.105526
     9  O   -0.527366
    10  O   -0.333347
    11  H   -0.049495
    12  H    0.319696
    13  C   -0.220276
    14  H    0.130958
    15  H    0.119403
    16  H    0.123981
 Sum of Mulliken atomic charges =   0.00000

 Dipole moment (field-independent basis, Debye):
    X=              0.3901    Y=             -0.5988    Z=             -0.6462  Tot=              0.9635
 Quadrupole moment (field-independent basis, Debye-Ang):
   XX=            -40.5235   YY=            -49.6948   ZZ=            -43.1575
   XY=             -0.6045   XZ=              0.5176   YZ=             -0.6831

 Normal termination of Gaussian 09 at Wed Aug  8 14:17:45 2018.
