 Gaussian 09, Revision C.01,
 Gaussian 09:  EM64L-G09RevC.01 23-Sep-2011

 --------------------------------------
 #SP PBE1PBE/Def2TZVP geom=connectivity
 --------------------------------------

 99/5=1,9=1/99;
 -------------
 Structure: 29
 -------------
 Charge =  0 Multiplicity = 1

                         Standard orientation:
 ---------------------------------------------------------------------
 Center     Atomic      Atomic             Coordinates (Angstroms)
 Number     Number       Type             X           Y           Z
 ---------------------------------------------------------------------
      1          1           0       -3.104471   -1.377373   -0.416252
      2          6           0       -2.139613   -0.896758   -0.597102
      3          6           0       -1.532416   -0.351510    0.694835
      4          1           0       -2.313550   -0.101996   -1.328821
      5          1           0       -1.483282   -1.636562   -1.062001
      6          1           0       -2.204964    0.381990    1.153157
      7         14           0        0.131318    0.454647    0.484299
      8          1           0       -1.416258   -1.157309    1.427408
      9          8           0       -0.263916    1.655112   -0.573515
     10          8           0        1.136339   -0.729446   -0.050419
     11          1           0        0.660817    1.038871    1.743297
     12          1           0       -0.708247    1.403176   -1.383486
     13          6           0        2.517462   -0.549319   -0.259484
     14          1           0        2.950815   -1.510059   -0.542994
     15          1           0        3.018070   -0.197547    0.650686
     16          1           0        2.710631    0.171943   -1.059207
 ---------------------------------------------------------------------

 SCF Done:  E(RPBE1PBE) =  -560.054371991     A.U. after   12 cycles

 The electronic state is 1-A.
 Alpha  occ. eigenvalues --  -66.25599 -19.20714 -19.19839 -10.26921 -10.21502
 Alpha  occ. eigenvalues --  -10.19875  -5.33251  -3.66768  -3.66692  -3.66503
 Alpha  occ. eigenvalues --   -1.04792  -1.02328  -0.77675  -0.70978  -0.63679
 Alpha  occ. eigenvalues --   -0.56523  -0.51602  -0.47295  -0.46975  -0.45775
 Alpha  occ. eigenvalues --   -0.43517  -0.41217  -0.38583  -0.37220  -0.36458
 Alpha  occ. eigenvalues --   -0.35245  -0.32393  -0.30718  -0.28913
 Alpha virt. eigenvalues --    0.02291   0.05118   0.05868   0.07997   0.09017
 Alpha virt. eigenvalues --    0.09642   0.11068   0.11534   0.11942   0.13150
 Alpha virt. eigenvalues --    0.13598   0.15127   0.16594   0.17924   0.19872

 Mulliken atomic charges:
              1
     1  H    0.129466
     2  C   -0.395154
     3  C   -0.305466
     4  H    0.093458
     5  H    0.142160
     6  H    0.118010
     7  Si   0.548686
     8  H    0.105842
     9  O   -0.527421
    10  O   -0.333484
    11  H   -0.049887
    12  H    0.319737
    13  C   -0.220102
    14  H    0.130900
    15  H    0.119357
    16  H    0.123896
 Sum of Mulliken atomic charges =   0.00000

 Dipole moment (field-independent basis, Debye):
    X=              0.3738    Y=             -0.5977    Z=             -0.6528  Tot=              0.9608
 Quadrupole moment (field-independent basis, Debye-Ang):
   XX=            -40.5416   YY=            -49.6853   ZZ=            -43.1439
   XY=             -0.6345   XZ=              0.5035   YZ=             -0.7177

 Normal termination of Gaussian 09 at Wed Aug  8 14:24:10 2018.
