 Gaussian 09, Revision C.01,
 Gaussian 09:  EM64L-G09RevC.01 23-Sep-2011

 --------------------------------------
 #SP PBE1PBE/Def2TZVP geom=connectivity
 --------------------------------------

 99/5=1,9=1/99;
 -------------
 Structure: 23
 -------------
 Charge =  0 Multiplicity = 1

                         Standard orientation:
 ---------------------------------------------------------------------
 Center     Atomic      Atomic             Coordinates (Angstroms)
 Number     Number       Type             X           Y           Z
 ---------------------------------------------------------------------
      1          1           0       -3.086178   -1.401379   -0.397782
      2          6           0       -2.125620   -0.914579   -0.584870
      3          6           0       -1.519112   -0.355184    0.701330
      4          1           0       -2.307813   -0.126564   -1.321859
      5          1           0       -1.464816   -1.652610   -1.046235
      6          1           0       -2.196102    0.376370    1.156210
      7         14           0        0.137666    0.462380    0.480198
      8          1           0       -1.394608   -1.154680    1.439418
      9          8           0       -0.323905    1.633317   -0.583828
     10          8           0        1.150433   -0.717703   -0.048740
     11          1           0        0.666082    1.059901    1.733397
     12          1           0       -0.779081    1.354431   -1.379716
     13          6           0        2.529515   -0.528329   -0.263038
     14          1           0        2.969584   -1.487701   -0.540777
     15          1           0        3.029888   -0.166021    0.643118
     16          1           0        2.714802    0.188559   -1.068538
 ---------------------------------------------------------------------

 SCF Done:  E(RPBE1PBE) =  -560.051896816     A.U. after   12 cycles

 The electronic state is 1-A.
 Alpha  occ. eigenvalues --  -66.25645 -19.20819 -19.19742 -10.26990 -10.21478
 Alpha  occ. eigenvalues --  -10.19717  -5.33295  -3.66813  -3.66740  -3.66542
 Alpha  occ. eigenvalues --   -1.04856  -1.02284  -0.77595  -0.71047  -0.63633
 Alpha  occ. eigenvalues --   -0.56469  -0.51655  -0.47365  -0.47034  -0.45771
 Alpha  occ. eigenvalues --   -0.43509  -0.41272  -0.38492  -0.37195  -0.36432
 Alpha  occ. eigenvalues --   -0.35159  -0.32465  -0.30789  -0.28688
 Alpha virt. eigenvalues --    0.02213   0.05032   0.05828   0.07958   0.09022
 Alpha virt. eigenvalues --    0.09541   0.11057   0.11618   0.11901   0.13085
 Alpha virt. eigenvalues --    0.13606   0.15115   0.16645   0.18041   0.19998

 Mulliken atomic charges:
              1
     1  H    0.129340
     2  C   -0.394711
     3  C   -0.305862
     4  H    0.091193
     5  H    0.142230
     6  H    0.117504
     7  Si   0.549752
     8  H    0.103768
     9  O   -0.526279
    10  O   -0.332734
    11  H   -0.047449
    12  H    0.319227
    13  C   -0.221095
    14  H    0.131240
    15  H    0.119609
    16  H    0.124267
 Sum of Mulliken atomic charges =   0.00000

 Dipole moment (field-independent basis, Debye):
    X=              0.4787    Y=             -0.5915    Z=             -0.6179  Tot=              0.9802
 Quadrupole moment (field-independent basis, Debye-Ang):
   XX=            -40.4541   YY=            -49.7104   ZZ=            -43.2170
   XY=             -0.4487   XZ=              0.5805   YZ=             -0.5119

 Normal termination of Gaussian 09 at Wed Aug  8 13:45:32 2018.
