 Gaussian 09, Revision C.01,
 Gaussian 09:  EM64L-G09RevC.01 23-Sep-2011

 --------------------------------------
 #SP PBE1PBE/Def2TZVP geom=connectivity
 --------------------------------------

 99/5=1,9=1/99;
 ------------
 Structure: 2
 ------------
 Charge =  0 Multiplicity = 1

                         Standard orientation:
 ---------------------------------------------------------------------
 Center     Atomic      Atomic             Coordinates (Angstroms)
 Number     Number       Type             X           Y           Z
 ---------------------------------------------------------------------
      1          1           0       -3.027143   -1.472724   -0.315901
      2          6           0       -2.079838   -0.971889   -0.531366
      3          6           0       -1.475280   -0.348056    0.725784
      4          1           0       -2.286744   -0.218180   -1.297152
      5          1           0       -1.406108   -1.712363   -0.969541
      6          1           0       -2.165096    0.385319    1.157892
      7         14           0        0.160041    0.497779    0.456496
      8          1           0       -1.325767   -1.114510    1.493678
      9          8           0       -0.521605    1.533634   -0.629743
     10          8           0        1.195313   -0.678912   -0.035112
     11          1           0        0.685356    1.156598    1.679918
     12          1           0       -1.004304    1.150637   -1.364546
     13          6           0        2.567692   -0.466691   -0.270044
     14          1           0        3.027507   -1.426023   -0.513859
     15          1           0        3.067409   -0.057278    0.616197
     16          1           0        2.729207    0.221654   -1.105020
 ---------------------------------------------------------------------

 SCF Done:  E(RPBE1PBE) =  -560.039240748     A.U. after   13 cycles

 The electronic state is 1-A.
 Alpha  occ. eigenvalues --  -66.25835 -19.21183 -19.19268 -10.27224 -10.21432
 Alpha  occ. eigenvalues --  -10.19156  -5.33480  -3.67002  -3.66936  -3.66707
 Alpha  occ. eigenvalues --   -1.05099  -1.02111  -0.77331  -0.71288  -0.63525
 Alpha  occ. eigenvalues --   -0.56276  -0.51836  -0.47610  -0.47245  -0.45836
 Alpha  occ. eigenvalues --   -0.43491  -0.41499  -0.38183  -0.37027  -0.36339
 Alpha  occ. eigenvalues --   -0.34846  -0.32678  -0.31026  -0.27697
 Alpha virt. eigenvalues --    0.01730   0.04765   0.05683   0.07746   0.09055
 Alpha virt. eigenvalues --    0.09274   0.11043   0.11661   0.11953   0.12973
 Alpha virt. eigenvalues --    0.13699   0.15063   0.16814   0.18297   0.20369

 Mulliken atomic charges:
              1
     1  H    0.129061
     2  C   -0.391699
     3  C   -0.307941
     4  H    0.083731
     5  H    0.142623
     6  H    0.115866
     7  Si   0.551767
     8  H    0.095567
     9  O   -0.518599
    10  O   -0.330602
    11  H   -0.038147
    12  H    0.314265
    13  C   -0.223871
    14  H    0.132451
    15  H    0.120414
    16  H    0.125114
 Sum of Mulliken atomic charges =   0.00000

 Dipole moment (field-independent basis, Debye):
    X=              0.8530    Y=             -0.5516    Z=             -0.4989  Tot=              1.1317
 Quadrupole moment (field-independent basis, Debye-Ang):
   XX=            -40.1874   YY=            -49.6488   ZZ=            -43.5749
   XY=              0.2567   XZ=              0.7515   YZ=              0.2980

 Normal termination of Gaussian 09 at Wed Aug  8 14:31:23 2018.
