 Gaussian 09, Revision C.01,
 Gaussian 09:  EM64L-G09RevC.01 23-Sep-2011

 --------------------------------------
 #SP PBE1PBE/Def2TZVP geom=connectivity
 --------------------------------------

 99/5=1,9=1/99;
 -------------
 Structure: 27
 -------------
 Charge =  0 Multiplicity = 1

                         Standard orientation:
 ---------------------------------------------------------------------
 Center     Atomic      Atomic             Coordinates (Angstroms)
 Number     Number       Type             X           Y           Z
 ---------------------------------------------------------------------
      1          1           0       -3.098346   -1.385615   -0.410519
      2          6           0       -2.134938   -0.902827   -0.593299
      3          6           0       -1.527987   -0.353211    0.696901
      4          1           0       -2.311670   -0.110094   -1.326548
      5          1           0       -1.477077   -1.641876   -1.057235
      6          1           0       -2.202054    0.379477    1.154290
      7         14           0        0.133401    0.456910    0.483084
      8          1           0       -1.409004   -1.157133    1.431082
      9          8           0       -0.283895    1.649172   -0.576463
     10          8           0        1.141067   -0.725648   -0.050050
     11          1           0        0.662520    1.045225    1.740336
     12          1           0       -0.732073    1.387090   -1.382571
     13          6           0        2.521510   -0.542301   -0.260796
     14          1           0        2.957150   -1.502489   -0.542664
     15          1           0        3.022031   -0.187258    0.648151
     16          1           0        2.712015    0.177763   -1.062236
 ---------------------------------------------------------------------

 SCF Done:  E(RPBE1PBE) =  -560.053623133     A.U. after   12 cycles

 The electronic state is 1-A.
 Alpha  occ. eigenvalues --  -66.25618 -19.20753 -19.19817 -10.26946 -10.21496
 Alpha  occ. eigenvalues --  -10.19827  -5.33269  -3.66785  -3.66711  -3.66519
 Alpha  occ. eigenvalues --   -1.04812  -1.02287  -0.77651  -0.71003  -0.63664
 Alpha  occ. eigenvalues --   -0.56478  -0.51612  -0.47320  -0.46997  -0.45775
 Alpha  occ. eigenvalues --   -0.43517  -0.41233  -0.38554  -0.37213  -0.36445
 Alpha  occ. eigenvalues --   -0.35216  -0.32418  -0.30745  -0.28845
 Alpha virt. eigenvalues --    0.02259   0.05087   0.05854   0.07984   0.09016
 Alpha virt. eigenvalues --    0.09605   0.11062   0.11559   0.11925   0.13126
 Alpha virt. eigenvalues --    0.13596   0.15121   0.16608   0.17960   0.19912

 Mulliken atomic charges:
              1
     1  H    0.129435
     2  C   -0.395056
     3  C   -0.305531
     4  H    0.092731
     5  H    0.142193
     6  H    0.117881
     7  Si   0.549008
     8  H    0.105198
     9  O   -0.527402
    10  O   -0.333208
    11  H   -0.049091
    12  H    0.319760
    13  C   -0.220442
    14  H    0.131019
    15  H    0.119454
    16  H    0.124050
 Sum of Mulliken atomic charges =   0.00000

 Dipole moment (field-independent basis, Debye):
    X=              0.4084    Y=             -0.6005    Z=             -0.6409  Tot=              0.9686
 Quadrupole moment (field-independent basis, Debye-Ang):
   XX=            -40.5097   YY=            -49.7072   ZZ=            -43.1667
   XY=             -0.5714   XZ=              0.5292   YZ=             -0.6487

 Normal termination of Gaussian 09 at Wed Aug  8 14:11:16 2018.
