 Gaussian 09, Revision C.01,
 Gaussian 09:  EM64L-G09RevC.01 23-Sep-2011

 --------------------------------------
 #SP PBE1PBE/Def2TZVP geom=connectivity
 --------------------------------------

 99/5=1,9=1/99;
 -------------
 Structure: 22
 -------------
 Charge =  0 Multiplicity = 1

                         Standard orientation:
 ---------------------------------------------------------------------
 Center     Atomic      Atomic             Coordinates (Angstroms)
 Number     Number       Type             X           Y           Z
 ---------------------------------------------------------------------
      1          1           0       -3.083157   -1.405323   -0.394727
      2          6           0       -2.123306   -0.917528   -0.582852
      3          6           0       -1.516913   -0.355808    0.702389
      4          1           0       -2.306844   -0.130637   -1.320707
      5          1           0       -1.461778   -1.655275   -1.043632
      6          1           0       -2.194622    0.375433    1.156700
      7         14           0        0.138721    0.463595    0.479497
      8          1           0       -1.391049   -1.154252    1.441384
      9          8           0       -0.333760    1.630157   -0.585464
     10          8           0        1.152742   -0.715838   -0.048486
     11          1           0        0.666958    1.063301    1.731727
     12          1           0       -0.790969    1.345561   -1.378671
     13          6           0        2.531482   -0.524969   -0.263656
     14          1           0        2.972642   -1.484116   -0.540441
     15          1           0        3.031816   -0.160930    0.641829
     16          1           0        2.715483    0.191180   -1.070108
 ---------------------------------------------------------------------

 SCF Done:  E(RPBE1PBE) =  -560.051462177     A.U. after   12 cycles

 The electronic state is 1-A.
 Alpha  occ. eigenvalues --  -66.25658 -19.20840 -19.19727 -10.27003 -10.21477
 Alpha  occ. eigenvalues --  -10.19695  -5.33308  -3.66825  -3.66753  -3.66554
 Alpha  occ. eigenvalues --   -1.04867  -1.02263  -0.77586  -0.71061  -0.63627
 Alpha  occ. eigenvalues --   -0.56443  -0.51659  -0.47378  -0.47046  -0.45774
 Alpha  occ. eigenvalues --   -0.43511  -0.41282  -0.38478  -0.37191  -0.36424
 Alpha  occ. eigenvalues --   -0.35144  -0.32477  -0.30803  -0.28653
 Alpha virt. eigenvalues --    0.02194   0.05017   0.05820   0.07949   0.09023
 Alpha virt. eigenvalues --    0.09523   0.11053   0.11627   0.11894   0.13074
 Alpha virt. eigenvalues --    0.13606   0.15112   0.16651   0.18054   0.20018

 Mulliken atomic charges:
              1
     1  H    0.129329
     2  C   -0.394606
     3  C   -0.305950
     4  H    0.090841
     5  H    0.142261
     6  H    0.117464
     7  Si   0.549894
     8  H    0.103450
     9  O   -0.526232
    10  O   -0.332586
    11  H   -0.047022
    12  H    0.319102
    13  C   -0.221258
    14  H    0.131302
    15  H    0.119657
    16  H    0.124353
 Sum of Mulliken atomic charges =   0.00000

 Dipole moment (field-independent basis, Debye):
    X=              0.4959    Y=             -0.5945    Z=             -0.6101  Tot=              0.9857
 Quadrupole moment (field-independent basis, Debye-Ang):
   XX=            -40.4357   YY=            -49.7222   ZZ=            -43.2329
   XY=             -0.4145   XZ=              0.5912   YZ=             -0.4723

 Normal termination of Gaussian 09 at Wed Aug  8 13:39:09 2018.
