 Gaussian 09, Revision C.01,
 Gaussian 09:  EM64L-G09RevC.01 23-Sep-2011

 --------------------------------------
 #SP PBE1PBE/Def2TZVP geom=connectivity
 --------------------------------------

 99/5=1,9=1/99;
 -------------
 Structure: 20
 -------------
 Charge =  0 Multiplicity = 1

                         Standard orientation:
 ---------------------------------------------------------------------
 Center     Atomic      Atomic             Coordinates (Angstroms)
 Number     Number       Type             X           Y           Z
 ---------------------------------------------------------------------
      1          1           0       -3.077264   -1.412615   -0.388222
      2          6           0       -2.118780   -0.922982   -0.578532
      3          6           0       -1.512564   -0.356395    0.704654
      4          1           0       -2.304922   -0.138492   -1.318289
      5          1           0       -1.455884   -1.660331   -1.037983
      6          1           0       -2.191631    0.374391    1.157669
      7         14           0        0.140859    0.466446    0.478051
      8          1           0       -1.384067   -1.152576    1.445635
      9          8           0       -0.353303    1.621594   -0.589466
     10          8           0        1.157262   -0.711904   -0.047767
     11          1           0        0.668797    1.070742    1.728199
     12          1           0       -0.813681    1.328303   -1.376897
     13          6           0        2.535332   -0.518247   -0.264730
     14          1           0        2.978572   -1.477044   -0.539396
     15          1           0        3.035618   -0.150601    0.639322
     16          1           0        2.716836    0.196216   -1.073241
 ---------------------------------------------------------------------

 SCF Done:  E(RPBE1PBE) =  -560.050497664     A.U. after   12 cycles

 The electronic state is 1-A.
 Alpha  occ. eigenvalues --  -66.25676 -19.20873 -19.19681 -10.27025 -10.21470
 Alpha  occ. eigenvalues --  -10.19642  -5.33325  -3.66843  -3.66771  -3.66569
 Alpha  occ. eigenvalues --   -1.04890  -1.02261  -0.77559  -0.71083  -0.63614
 Alpha  occ. eigenvalues --   -0.56439  -0.51681  -0.47401  -0.47065  -0.45775
 Alpha  occ. eigenvalues --   -0.43508  -0.41306  -0.38444  -0.37181  -0.36416
 Alpha  occ. eigenvalues --   -0.35115  -0.32499  -0.30825  -0.28572
 Alpha virt. eigenvalues --    0.02168   0.04991   0.05805   0.07934   0.09026
 Alpha virt. eigenvalues --    0.09493   0.11051   0.11651   0.11887   0.13055
 Alpha virt. eigenvalues --    0.13614   0.15107   0.16668   0.18088   0.20059

 Mulliken atomic charges:
              1
     1  H    0.129281
     2  C   -0.394405
     3  C   -0.306119
     4  H    0.090102
     5  H    0.142290
     6  H    0.117282
     7  Si   0.550264
     8  H    0.102724
     9  O   -0.525641
    10  O   -0.332342
    11  H   -0.046131
    12  H    0.318661
    13  C   -0.221566
    14  H    0.131412
    15  H    0.119725
    16  H    0.124460
 Sum of Mulliken atomic charges =   0.00000

 Dipole moment (field-independent basis, Debye):
    X=              0.5312    Y=             -0.5902    Z=             -0.5965  Tot=              0.9932
 Quadrupole moment (field-independent basis, Debye-Ang):
   XX=            -40.4082   YY=            -49.7209   ZZ=            -43.2613
   XY=             -0.3506   XZ=              0.6137   YZ=             -0.3987

 Normal termination of Gaussian 09 at Wed Aug  8 13:26:23 2018.
