 Gaussian 09, Revision C.01,
 Gaussian 09:  EM64L-G09RevC.01 23-Sep-2011

 --------------------------------------
 #SP PBE1PBE/Def2TZVP geom=connectivity
 --------------------------------------

 99/5=1,9=1/99;
 -------------
 Structure: 25
 -------------
 Charge =  0 Multiplicity = 1

                         Standard orientation:
 ---------------------------------------------------------------------
 Center     Atomic      Atomic             Coordinates (Angstroms)
 Number     Number       Type             X           Y           Z
 ---------------------------------------------------------------------
      1          1           0       -3.092149   -1.393606   -0.404590
      2          6           0       -2.130200   -0.908664   -0.589341
      3          6           0       -1.523472   -0.354653    0.699083
      4          1           0       -2.309736   -0.117988   -1.324129
      5          1           0       -1.470827   -1.646968   -1.052315
      6          1           0       -2.199041    0.377234    1.155538
      7         14           0        0.135556    0.459403    0.481916
      8          1           0       -1.401654   -1.156668    1.434883
      9          8           0       -0.304278    1.641799   -0.579971
     10          8           0        1.145843   -0.721631   -0.049635
     11          1           0        0.664319    1.051835    1.737383
     12          1           0       -0.755703    1.371288   -1.380529
     13          6           0        2.525592   -0.535083   -0.262107
     14          1           0        2.963506   -1.494721   -0.542321
     15          1           0        3.026041   -0.176751    0.645588
     16          1           0        2.713419    0.183748   -1.065284
 ---------------------------------------------------------------------

 SCF Done:  E(RPBE1PBE) =  -560.052784578     A.U. after   12 cycles

 The electronic state is 1-A.
 Alpha  occ. eigenvalues --  -66.25639 -19.20789 -19.19773 -10.26970 -10.21487
 Alpha  occ. eigenvalues --  -10.19775  -5.33288  -3.66805  -3.66731  -3.66537
 Alpha  occ. eigenvalues --   -1.04836  -1.02287  -0.77625  -0.71027  -0.63650
 Alpha  occ. eigenvalues --   -0.56473  -0.51634  -0.47344  -0.47017  -0.45773
 Alpha  occ. eigenvalues --   -0.43515  -0.41255  -0.38521  -0.37205  -0.36435
 Alpha  occ. eigenvalues --   -0.35187  -0.32443  -0.30769  -0.28770
 Alpha virt. eigenvalues --    0.02241   0.05060   0.05839   0.07970   0.09021
 Alpha virt. eigenvalues --    0.09571   0.11057   0.11589   0.11912   0.13102
 Alpha virt. eigenvalues --    0.13601   0.15117   0.16625   0.18000   0.19955

 Mulliken atomic charges:
              1
     1  H    0.129385
     2  C   -0.394907
     3  C   -0.305636
     4  H    0.092016
     5  H    0.142204
     6  H    0.117707
     7  Si   0.549464
     8  H    0.104498
     9  O   -0.526994
    10  O   -0.332934
    11  H   -0.048220
    12  H    0.319347
    13  C   -0.220785
    14  H    0.131136
    15  H    0.119534
    16  H    0.124185
 Sum of Mulliken atomic charges =   0.00000

 Dipole moment (field-independent basis, Debye):
    X=              0.4447    Y=             -0.5982    Z=             -0.6269  Tot=              0.9740
 Quadrupole moment (field-independent basis, Debye-Ang):
   XX=            -40.4794   YY=            -49.7137   ZZ=            -43.1926
   XY=             -0.5079   XZ=              0.5540   YZ=             -0.5781

 Normal termination of Gaussian 09 at Wed Aug  8 13:58:18 2018.
