 Gaussian 09, Revision C.01,
 Gaussian 09:  EM64L-G09RevC.01 23-Sep-2011

 --------------------------------------
 #SP PBE1PBE/Def2TZVP geom=connectivity
 --------------------------------------

 99/5=1,9=1/99;
 -------------
 Structure: 26
 -------------
 Charge =  0 Multiplicity = 1

                         Standard orientation:
 ---------------------------------------------------------------------
 Center     Atomic      Atomic             Coordinates (Angstroms)
 Number     Number       Type             X           Y           Z
 ---------------------------------------------------------------------
      1          1           0       -3.095170   -1.389593   -0.407508
      2          6           0       -2.132510   -0.905686   -0.591272
      3          6           0       -1.525656   -0.353919    0.698057
      4          1           0       -2.310688   -0.113947   -1.325245
      5          1           0       -1.473881   -1.644317   -1.054781
      6          1           0       -2.200487    0.378322    1.155032
      7         14           0        0.134523    0.458236    0.482567
      8          1           0       -1.405211   -1.156924    1.433002
      9          8           0       -0.294359    1.644858   -0.578413
     10          8           0        1.143524   -0.723501   -0.049862
     11          1           0        0.663476    1.048561    1.738946
     12          1           0       -0.744604    1.379565   -1.381419
     13          6           0        2.523611   -0.538496   -0.261493
     14          1           0        2.960412   -1.498382   -0.542595
     15          1           0        3.024107   -0.181841    0.646835
     16          1           0        2.712734    0.181001   -1.063769
 ---------------------------------------------------------------------

 SCF Done:  E(RPBE1PBE) =  -560.053184500     A.U. after   12 cycles

 The electronic state is 1-A.
 Alpha  occ. eigenvalues --  -66.25627 -19.20768 -19.19791 -10.26957 -10.21490
 Alpha  occ. eigenvalues --  -10.19798  -5.33277  -3.66794  -3.66719  -3.66526
 Alpha  occ. eigenvalues --   -1.04823  -1.02296  -0.77636  -0.71014  -0.63656
 Alpha  occ. eigenvalues --   -0.56489  -0.51626  -0.47331  -0.47006  -0.45772
 Alpha  occ. eigenvalues --   -0.43514  -0.41246  -0.38533  -0.37209  -0.36441
 Alpha  occ. eigenvalues --   -0.35201  -0.32429  -0.30754  -0.28805
 Alpha virt. eigenvalues --    0.02253   0.05074   0.05847   0.07978   0.09019
 Alpha virt. eigenvalues --    0.09589   0.11060   0.11577   0.11919   0.13114
 Alpha virt. eigenvalues --    0.13600   0.15120   0.16619   0.17984   0.19935

 Mulliken atomic charges:
              1
     1  H    0.129402
     2  C   -0.394939
     3  C   -0.305621
     4  H    0.092322
     5  H    0.142194
     6  H    0.117766
     7  Si   0.549331
     8  H    0.104821
     9  O   -0.527139
    10  O   -0.333079
    11  H   -0.048628
    12  H    0.319523
    13  C   -0.220618
    14  H    0.131072
    15  H    0.119483
    16  H    0.124109
 Sum of Mulliken atomic charges =   0.00000

 Dipole moment (field-independent basis, Debye):
    X=              0.4263    Y=             -0.5962    Z=             -0.6337  Tot=              0.9689
 Quadrupole moment (field-independent basis, Debye-Ang):
   XX=            -40.4951   YY=            -49.7029   ZZ=            -43.1796
   XY=             -0.5415   XZ=              0.5441   YZ=             -0.6146

 Normal termination of Gaussian 09 at Wed Aug  8 14:04:49 2018.
