 Gaussian 09, Revision C.01,
 Gaussian 09:  EM64L-G09RevC.01 23-Sep-2011

 --------------------------------------
 #SP PBE1PBE/Def2TZVP geom=connectivity
 --------------------------------------

 99/5=1,9=1/99;
 -------------
 Structure: 24
 -------------
 Charge =  0 Multiplicity = 1

                         Standard orientation:
 ---------------------------------------------------------------------
 Center     Atomic      Atomic             Coordinates (Angstroms)
 Number     Number       Type             X           Y           Z
 ---------------------------------------------------------------------
      1          1           0       -3.089002   -1.397725   -0.401023
      2          6           0       -2.127787   -0.911796   -0.587001
      3          6           0       -1.521177   -0.354954    0.700258
      4          1           0       -2.308727   -0.122517   -1.322945
      5          1           0       -1.467656   -1.649951   -1.049131
      6          1           0       -2.197499    0.376752    1.155888
      7         14           0        0.136663    0.460963    0.481010
      8          1           0       -1.397940   -1.155648    1.437259
      9          8           0       -0.314596    1.637309   -0.581949
     10          8           0        1.148263   -0.719563   -0.049171
     11          1           0        0.665240    1.056071    1.735289
     12          1           0       -0.768136    1.362953   -1.380224
     13          6           0        2.527661   -0.531516   -0.262602
     14          1           0        2.966715   -1.491011   -0.541518
     15          1           0        3.028069   -0.171093    0.644287
     16          1           0        2.714146    0.186300   -1.066998
 ---------------------------------------------------------------------

 SCF Done:  E(RPBE1PBE) =  -560.052322329     A.U. after   12 cycles

 The electronic state is 1-A.
 Alpha  occ. eigenvalues --  -66.25641 -19.20804 -19.19757 -10.26980 -10.21481
 Alpha  occ. eigenvalues --  -10.19743  -5.33291  -3.66808  -3.66735  -3.66539
 Alpha  occ. eigenvalues --   -1.04845  -1.02285  -0.77608  -0.71037  -0.63640
 Alpha  occ. eigenvalues --   -0.56474  -0.51646  -0.47355  -0.47026  -0.45770
 Alpha  occ. eigenvalues --   -0.43511  -0.41264  -0.38503  -0.37200  -0.36433
 Alpha  occ. eigenvalues --   -0.35172  -0.32454  -0.30779  -0.28726
 Alpha virt. eigenvalues --    0.02226   0.05046   0.05834   0.07965   0.09021
 Alpha virt. eigenvalues --    0.09556   0.11057   0.11605   0.11906   0.13094
 Alpha virt. eigenvalues --    0.13604   0.15116   0.16636   0.18022   0.19978

 Mulliken atomic charges:
              1
     1  H    0.129358
     2  C   -0.394784
     3  C   -0.305759
     4  H    0.091562
     5  H    0.142211
     6  H    0.117591
     7  Si   0.549667
     8  H    0.104110
     9  O   -0.526655
    10  O   -0.332834
    11  H   -0.047822
    12  H    0.319319
    13  C   -0.220947
    14  H    0.131189
    15  H    0.119572
    16  H    0.124223
 Sum of Mulliken atomic charges =   0.00000

 Dipole moment (field-independent basis, Debye):
    X=              0.4623    Y=             -0.5936    Z=             -0.6229  Tot=              0.9767
 Quadrupole moment (field-independent basis, Debye-Ang):
   XX=            -40.4667   YY=            -49.7097   ZZ=            -43.2044
   XY=             -0.4784   XZ=              0.5689   YZ=             -0.5458

 Normal termination of Gaussian 09 at Wed Aug  8 13:51:53 2018.
