 Gaussian 09, Revision C.01,
 Gaussian 09:  EM64L-G09RevC.01 23-Sep-2011

 --------------------------------------
 #SP PBE1PBE/Def2TZVP geom=connectivity
 --------------------------------------

 99/5=1,9=1/99;
 ------------
 Structure: 3
 ------------
 Charge =  0 Multiplicity = 1

                         Standard orientation:
 ---------------------------------------------------------------------
 Center     Atomic      Atomic             Coordinates (Angstroms)
 Number     Number       Type             X           Y           Z
 ---------------------------------------------------------------------
      1          1           0       -3.029955   -1.469418   -0.320652
      2          6           0       -2.082045   -0.969006   -0.534436
      3          6           0       -1.477364   -0.349043    0.724568
      4          1           0       -2.287858   -0.213110   -1.298358
      5          1           0       -1.408899   -1.709041   -0.974243
      6          1           0       -2.166602    0.383926    1.158285
      7         14           0        0.158939    0.495796    0.458136
      8          1           0       -1.328959   -1.117630    1.490544
      9          8           0       -0.512026    1.538880   -0.627478
     10          8           0        1.193201   -0.680690   -0.036082
     11          1           0        0.684427    1.150913    1.683470
     12          1           0       -0.994555    1.161749   -1.364408
     13          6           0        2.565894   -0.469280   -0.269902
     14          1           0        3.024821   -1.428454   -0.516003
     15          1           0        3.065667   -0.062672    0.617598
     16          1           0        2.728464    0.221050   -1.103032
 ---------------------------------------------------------------------

 SCF Done:  E(RPBE1PBE) =  -560.040028438     A.U. after   13 cycles

 The electronic state is 1-A.
 Alpha  occ. eigenvalues --  -66.25824 -19.21163 -19.19289 -10.27212 -10.21434
 Alpha  occ. eigenvalues --  -10.19185  -5.33470  -3.66992  -3.66925  -3.66697
 Alpha  occ. eigenvalues --   -1.05086  -1.02139  -0.77344  -0.71275  -0.63530
 Alpha  occ. eigenvalues --   -0.56299  -0.51831  -0.47597  -0.47233  -0.45832
 Alpha  occ. eigenvalues --   -0.43492  -0.41490  -0.38196  -0.37040  -0.36348
 Alpha  occ. eigenvalues --   -0.34863  -0.32668  -0.31013  -0.27756
 Alpha virt. eigenvalues --    0.01768   0.04780   0.05689   0.07761   0.09054
 Alpha virt. eigenvalues --    0.09284   0.11044   0.11669   0.11946   0.12974
 Alpha virt. eigenvalues --    0.13695   0.15066   0.16808   0.18289   0.20356

 Mulliken atomic charges:
              1
     1  H    0.129060
     2  C   -0.391832
     3  C   -0.307988
     4  H    0.084058
     5  H    0.142615
     6  H    0.115943
     7  Si   0.551782
     8  H    0.096025
     9  O   -0.518853
    10  O   -0.330691
    11  H   -0.038609
    12  H    0.314411
    13  C   -0.223759
    14  H    0.132384
    15  H    0.120364
    16  H    0.125091
 Sum of Mulliken atomic charges =   0.00000

 Dipole moment (field-independent basis, Debye):
    X=              0.8326    Y=             -0.5531    Z=             -0.5019  Tot=              1.1185
 Quadrupole moment (field-independent basis, Debye-Ang):
   XX=            -40.1958   YY=            -49.6528   ZZ=            -43.5577
   XY=              0.2187   XZ=              0.7476   YZ=              0.2585

 Normal termination of Gaussian 09 at Wed Aug  8 15:38:11 2018.
