 Gaussian 09, Revision C.01,
 Gaussian 09:  EM64L-G09RevC.01 23-Sep-2011

 --------------------------------------
 #SP PBE1PBE/Def2TZVP geom=connectivity
 --------------------------------------

 99/5=1,9=1/99;
 -------------
 Structure: 30
 -------------
 Charge =  0 Multiplicity = 1

                         Standard orientation:
 ---------------------------------------------------------------------
 Center     Atomic      Atomic             Coordinates (Angstroms)
 Number     Number       Type             X           Y           Z
 ---------------------------------------------------------------------
      1          1           0       -3.107627   -1.373351   -0.419181
      2          6           0       -2.142024   -0.893875   -0.599075
      3          6           0       -1.534714   -0.350761    0.693707
      4          1           0       -2.314516   -0.098138   -1.330077
      5          1           0       -1.486479   -1.634107   -1.064400
      6          1           0       -2.206482    0.383196    1.152441
      7         14           0        0.130224    0.453330    0.484795
      8          1           0       -1.420016   -1.157457    1.425523
      9          8           0       -0.253397    1.659332   -0.571545
     10          8           0        1.133886   -0.731597   -0.050627
     11          1           0        0.659907    1.035559    1.744640
     12          1           0       -0.696989    1.411028   -1.384565
     13          6           0        2.515356   -0.553150   -0.258837
     14          1           0        2.947532   -1.514196   -0.543105
     15          1           0        3.016000   -0.202982    0.651931
     16          1           0        2.709903    0.168653   -1.057737
 ---------------------------------------------------------------------

 SCF Done:  E(RPBE1PBE) =  -560.054770496     A.U. after   12 cycles

 The electronic state is 1-A.
 Alpha  occ. eigenvalues --  -66.25593 -19.20698 -19.19867 -10.26910 -10.21509
 Alpha  occ. eigenvalues --  -10.19905  -5.33244  -3.66761  -3.66685  -3.66498
 Alpha  occ. eigenvalues --   -1.04778  -1.02302  -0.77691  -0.70967  -0.63688
 Alpha  occ. eigenvalues --   -0.56505  -0.51583  -0.47283  -0.46966  -0.45779
 Alpha  occ. eigenvalues --   -0.43521  -0.41204  -0.38597  -0.37223  -0.36459
 Alpha  occ. eigenvalues --   -0.35258  -0.32380  -0.30708  -0.28951
 Alpha virt. eigenvalues --    0.02289   0.05130   0.05875   0.08002   0.09013
 Alpha virt. eigenvalues --    0.09658   0.11070   0.11516   0.11947   0.13162
 Alpha virt. eigenvalues --    0.13594   0.15128   0.16584   0.17896   0.19849

 Mulliken atomic charges:
              1
     1  H    0.129500
     2  C   -0.395146
     3  C   -0.305454
     4  H    0.093780
     5  H    0.142171
     6  H    0.118137
     7  Si   0.548480
     8  H    0.106219
     9  O   -0.527917
    10  O   -0.333608
    11  H   -0.050320
    12  H    0.320067
    13  C   -0.219920
    14  H    0.130843
    15  H    0.119322
    16  H    0.123847
 Sum of Mulliken atomic charges =   0.00000

 Dipole moment (field-independent basis, Debye):
    X=              0.3540    Y=             -0.6016    Z=             -0.6595  Tot=              0.9603
 Quadrupole moment (field-independent basis, Debye-Ang):
   XX=            -40.5534   YY=            -49.6879   ZZ=            -43.1329
   XY=             -0.6666   XZ=              0.4912   YZ=             -0.7521

 Normal termination of Gaussian 09 at Wed Aug  8 14:37:52 2018.
