 Gaussian 09, Revision C.01,
 Gaussian 09:  EM64L-G09RevC.01 23-Sep-2011

 --------------------------------------
 #SP PBE1PBE/Def2TZVP geom=connectivity
 --------------------------------------

 99/5=1,9=1/99;
 -------------
 Structure: 38
 -------------
 Charge =  0 Multiplicity = 1

                         Standard orientation:
 ---------------------------------------------------------------------
 Center     Atomic      Atomic             Coordinates (Angstroms)
 Number     Number       Type             X           Y           Z
 ---------------------------------------------------------------------
      1          1           0       -3.132919   -1.338862   -0.440461
      2          6           0       -2.161273   -0.869118   -0.613359
      3          6           0       -1.552922   -0.341758    0.685443
      4          1           0       -2.321923   -0.066502   -1.339522
      5          1           0       -1.512311   -1.613517   -1.081256
      6          1           0       -2.218151    0.396595    1.146644
      7         14           0        0.121784    0.444863    0.488436
      8          1           0       -1.450189   -1.154684    1.412124
      9          8           0       -0.170684    1.683131   -0.559815
     10          8           0        1.114095   -0.747650   -0.051284
     11          1           0        0.653082    1.012438    1.754273
     12          1           0       -0.598521    1.469275   -1.389498
     13          6           0        2.498292   -0.583418   -0.252977
     14          1           0        2.920704   -1.547324   -0.542197
     15          1           0        2.999298   -0.245169    0.662086
     16          1           0        2.704085    0.141584   -1.046143
 ---------------------------------------------------------------------

 SCF Done:  E(RPBE1PBE) =  -560.057331009     A.U. after   12 cycles

 The electronic state is 1-A.
 Alpha  occ. eigenvalues --  -66.25539 -19.20555 -19.19971 -10.26815 -10.21547
 Alpha  occ. eigenvalues --  -10.20115  -5.33192  -3.66709  -3.66627  -3.66452
 Alpha  occ. eigenvalues --   -1.04696  -1.02346  -0.77799  -0.70873  -0.63758
 Alpha  occ. eigenvalues --   -0.56574  -0.51508  -0.47190  -0.46888  -0.45800
 Alpha  occ. eigenvalues --   -0.43531  -0.41138  -0.38710  -0.37244  -0.36492
 Alpha  occ. eigenvalues --   -0.35366  -0.32277  -0.30616  -0.29209
 Alpha virt. eigenvalues --    0.02355   0.05242   0.05923   0.08032   0.09008
 Alpha virt. eigenvalues --    0.09802   0.11096   0.11388   0.12016   0.13262
 Alpha virt. eigenvalues --    0.13606   0.15145   0.16513   0.17687   0.19688

 Mulliken atomic charges:
              1
     1  H    0.129667
     2  C   -0.395246
     3  C   -0.305209
     4  H    0.096634
     5  H    0.142129
     6  H    0.118831
     7  Si   0.546867
     8  H    0.108854
     9  O   -0.528867
    10  O   -0.334681
    11  H   -0.053394
    12  H    0.320236
    13  C   -0.218416
    14  H    0.130391
    15  H    0.118963
    16  H    0.123240
 Sum of Mulliken atomic charges =   0.00000

 Dipole moment (field-independent basis, Debye):
    X=              0.2144    Y=             -0.6041    Z=             -0.7067  Tot=              0.9541
 Quadrupole moment (field-independent basis, Debye-Ang):
   XX=            -40.6766   YY=            -49.6262   ZZ=            -43.0533
   XY=             -0.9043   XZ=              0.3714   YZ=             -1.0076

 Normal termination of Gaussian 09 at Wed Aug  8 15:24:48 2018.
