 Gaussian 09, Revision C.01,
 Gaussian 09:  EM64L-G09RevC.01 23-Sep-2011

 --------------------------------------
 #SP PBE1PBE/Def2TZVP geom=connectivity
 --------------------------------------

 99/5=1,9=1/99;
 -------------
 Structure: 39
 -------------
 Charge =  0 Multiplicity = 1

                         Standard orientation:
 ---------------------------------------------------------------------
 Center     Atomic      Atomic             Coordinates (Angstroms)
 Number     Number       Type             X           Y           Z
 ---------------------------------------------------------------------
      1          1           0       -3.136107   -1.334545   -0.442612
      2          6           0       -2.163691   -0.866151   -0.614847
      3          6           0       -1.555214   -0.340186    0.684461
      4          1           0       -2.322813   -0.063018   -1.340775
      5          1           0       -1.515584   -1.611313   -1.082714
      6          1           0       -2.219594    0.398957    1.145623
      7         14           0        0.120735    0.444069    0.488589
      8          1           0       -1.454026   -1.153544    1.410875
      9          8           0       -0.160350    1.685668   -0.558496
     10          8           0        1.111572   -0.749679   -0.051108
     11          1           0        0.652234    1.010374    1.754910
     12          1           0       -0.585132    1.474953   -1.391203
     13          6           0        2.496106   -0.587387   -0.252054
     14          1           0        2.917255   -1.551794   -0.541442
     15          1           0        2.997153   -0.250226    0.663389
     16          1           0        2.703348    0.137624   -1.044834
 ---------------------------------------------------------------------

 SCF Done:  E(RPBE1PBE) =  -560.057599199     A.U. after   12 cycles

 The electronic state is 1-A.
 Alpha  occ. eigenvalues --  -66.25529 -19.20538 -19.19992 -10.26804 -10.21552
 Alpha  occ. eigenvalues --  -10.20138  -5.33183  -3.66699  -3.66617  -3.66443
 Alpha  occ. eigenvalues --   -1.04686  -1.02343  -0.77811  -0.70862  -0.63766
 Alpha  occ. eigenvalues --   -0.56573  -0.51497  -0.47178  -0.46879  -0.45802
 Alpha  occ. eigenvalues --   -0.43532  -0.41127  -0.38729  -0.37244  -0.36496
 Alpha  occ. eigenvalues --   -0.35379  -0.32266  -0.30606  -0.29234
 Alpha virt. eigenvalues --    0.02355   0.05255   0.05930   0.08034   0.09005
 Alpha virt. eigenvalues --    0.09819   0.11101   0.11372   0.12025   0.13276
 Alpha virt. eigenvalues --    0.13607   0.15147   0.16505   0.17656   0.19669

 Mulliken atomic charges:
              1
     1  H    0.129688
     2  C   -0.395321
     3  C   -0.305120
     4  H    0.096994
     5  H    0.142123
     6  H    0.118906
     7  Si   0.546522
     8  H    0.109157
     9  O   -0.528905
    10  O   -0.334834
    11  H   -0.053794
    12  H    0.320394
    13  C   -0.218211
    14  H    0.130340
    15  H    0.118928
    16  H    0.123132
 Sum of Mulliken atomic charges =   0.00000

 Dipole moment (field-independent basis, Debye):
    X=              0.1990    Y=             -0.6045    Z=             -0.7151  Tot=              0.9573
 Quadrupole moment (field-independent basis, Debye-Ang):
   XX=            -40.6960   YY=            -49.6204   ZZ=            -43.0407
   XY=             -0.9301   XZ=              0.3534   YZ=             -1.0385

 Normal termination of Gaussian 09 at Wed Aug  8 15:31:10 2018.
