 Gaussian 09, Revision C.01,
 Gaussian 09:  EM64L-G09RevC.01 23-Sep-2011

 --------------------------------------
 #SP PBE1PBE/Def2TZVP geom=connectivity
 --------------------------------------

 99/5=1,9=1/99;
 -------------
 Structure: 34
 -------------
 Charge =  0 Multiplicity = 1

                         Standard orientation:
 ---------------------------------------------------------------------
 Center     Atomic      Atomic             Coordinates (Angstroms)
 Number     Number       Type             X           Y           Z
 ---------------------------------------------------------------------
      1          1           0       -3.120124   -1.356386   -0.430396
      2          6           0       -2.151547   -0.881542   -0.606552
      3          6           0       -1.543725   -0.346934    0.689531
      4          1           0       -2.318247   -0.081965   -1.334702
      5          1           0       -1.499207   -1.623529   -1.073582
      6          1           0       -2.212310    0.388895    1.149914
      7         14           0        0.126022    0.448769    0.486975
      8          1           0       -1.434881   -1.157153    1.418342
      9          8           0       -0.212545    1.672016   -0.565327
     10          8           0        1.124153   -0.739549   -0.051264
     11          1           0        0.656496    1.023051    1.750130
     12          1           0       -0.648387    1.441249   -1.387347
     13          6           0        2.506982   -0.567912   -0.256148
     14          1           0        2.934392   -1.530193   -0.543425
     15          1           0        3.007807   -0.224137    0.656954
     16          1           0        2.707037    0.155975   -1.051796
 ---------------------------------------------------------------------

 SCF Done:  E(RPBE1PBE) =  -560.056131819     A.U. after   12 cycles

 The electronic state is 1-A.
 Alpha  occ. eigenvalues --  -66.25568 -19.20627 -19.19922 -10.26863 -10.21527
 Alpha  occ. eigenvalues --  -10.20010  -5.33220  -3.66736  -3.66657  -3.66476
 Alpha  occ. eigenvalues --   -1.04735  -1.02314  -0.77745  -0.70921  -0.63722
 Alpha  occ. eigenvalues --   -0.56533  -0.51544  -0.47237  -0.46927  -0.45787
 Alpha  occ. eigenvalues --   -0.43526  -0.41171  -0.38650  -0.37235  -0.36473
 Alpha  occ. eigenvalues --   -0.35311  -0.32329  -0.30661  -0.29085
 Alpha virt. eigenvalues --    0.02324   0.05185   0.05899   0.08019   0.09008
 Alpha virt. eigenvalues --    0.09729   0.11080   0.11453   0.11980   0.13210
 Alpha virt. eigenvalues --    0.13596   0.15136   0.16548   0.17798   0.19766

 Mulliken atomic charges:
              1
     1  H    0.129581
     2  C   -0.395264
     3  C   -0.305237
     4  H    0.095226
     5  H    0.142141
     6  H    0.118479
     7  Si   0.547758
     8  H    0.107545
     9  O   -0.528688
    10  O   -0.334120
    11  H   -0.051839
    12  H    0.320285
    13  C   -0.219192
    14  H    0.130618
    15  H    0.119143
    16  H    0.123563
 Sum of Mulliken atomic charges =   0.00000

 Dipole moment (field-independent basis, Debye):
    X=              0.2847    Y=             -0.6038    Z=             -0.6828  Tot=              0.9549
 Quadrupole moment (field-independent basis, Debye-Ang):
   XX=            -40.6146   YY=            -49.6617   ZZ=            -43.0892
   XY=             -0.7862   XZ=              0.4338   YZ=             -0.8828

 Normal termination of Gaussian 09 at Wed Aug  8 15:03:12 2018.
