 Gaussian 09, Revision C.01,
 Gaussian 09:  EM64L-G09RevC.01 23-Sep-2011

 --------------------------------------
 #SP PBE1PBE/Def2TZVP geom=connectivity
 --------------------------------------

 99/5=1,9=1/99;
 -------------
 Structure: 35
 -------------
 Charge =  0 Multiplicity = 1

                         Standard orientation:
 ---------------------------------------------------------------------
 Center     Atomic      Atomic             Coordinates (Angstroms)
 Number     Number       Type             X           Y           Z
 ---------------------------------------------------------------------
      1          1           0       -3.123266   -1.352249   -0.432639
      2          6           0       -2.153934   -0.878692   -0.608103
      3          6           0       -1.546002   -0.345517    0.688519
      4          1           0       -2.319145   -0.078558   -1.335980
      5          1           0       -1.502408   -1.621391   -1.075139
      6          1           0       -2.213778    0.391049    1.148898
      7         14           0        0.124964    0.447923    0.487146
      8          1           0       -1.438663   -1.156212    1.417024
      9          8           0       -0.202309    1.674664   -0.563978
     10          8           0        1.121687   -0.741561   -0.051127
     11          1           0        0.655619    1.020896    1.750818
     12          1           0       -0.635509    1.448160   -1.388230
     13          6           0        2.504859   -0.571782   -0.255248
     14          1           0        2.931055   -1.534538   -0.542741
     15          1           0        3.005713   -0.229119    0.658255
     16          1           0        2.706329    0.152175   -1.050475
 ---------------------------------------------------------------------

 SCF Done:  E(RPBE1PBE) =  -560.056442059     A.U. after   12 cycles

 The electronic state is 1-A.
 Alpha  occ. eigenvalues --  -66.25556 -19.20609 -19.19937 -10.26851 -10.21530
 Alpha  occ. eigenvalues --  -10.20034  -5.33209  -3.66725  -3.66646  -3.66466
 Alpha  occ. eigenvalues --   -1.04727  -1.02332  -0.77756  -0.70909  -0.63729
 Alpha  occ. eigenvalues --   -0.56550  -0.51538  -0.47225  -0.46918  -0.45788
 Alpha  occ. eigenvalues --   -0.43526  -0.41160  -0.38669  -0.37236  -0.36480
 Alpha  occ. eigenvalues --   -0.35326  -0.32317  -0.30650  -0.29114
 Alpha virt. eigenvalues --    0.02333   0.05201   0.05907   0.08023   0.09009
 Alpha virt. eigenvalues --    0.09747   0.11085   0.11438   0.11989   0.13225
 Alpha virt. eigenvalues --    0.13598   0.15139   0.16541   0.17773   0.19747

 Mulliken atomic charges:
              1
     1  H    0.129599
     2  C   -0.395299
     3  C   -0.305216
     4  H    0.095591
     5  H    0.142125
     6  H    0.118550
     7  Si   0.547471
     8  H    0.107855
     9  O   -0.528543
    10  O   -0.334277
    11  H   -0.052278
    12  H    0.320291
    13  C   -0.219001
    14  H    0.130564
    15  H    0.119106
    16  H    0.123462
 Sum of Mulliken atomic charges =   0.00000

 Dipole moment (field-independent basis, Debye):
    X=              0.2684    Y=             -0.6027    Z=             -0.6909  Tot=              0.9553
 Quadrupole moment (field-independent basis, Debye-Ang):
   XX=            -40.6325   YY=            -49.6510   ZZ=            -43.0784
   XY=             -0.8154   XZ=              0.4174   YZ=             -0.9165

 Normal termination of Gaussian 09 at Wed Aug  8 15:09:37 2018.
