 Gaussian 09, Revision C.01,
 Gaussian 09:  EM64L-G09RevC.01 23-Sep-2011

 --------------------------------------
 #SP PBE1PBE/Def2TZVP geom=connectivity
 --------------------------------------

 99/5=1,9=1/99;
 -------------
 Structure: 32
 -------------
 Charge =  0 Multiplicity = 1

                         Standard orientation:
 ---------------------------------------------------------------------
 Center     Atomic      Atomic             Coordinates (Angstroms)
 Number     Number       Type             X           Y           Z
 ---------------------------------------------------------------------
      1          1           0       -3.113816   -1.364876   -0.424744
      2          6           0       -2.146740   -0.887677   -0.602771
      3          6           0       -1.539174   -0.348809    0.691667
      4          1           0       -2.316371   -0.090012   -1.332339
      5          1           0       -1.492775   -1.628763   -1.068961
      6          1           0       -2.209372    0.386059    1.151238
      7         14           0        0.128147    0.451153    0.485931
      8          1           0       -1.427368   -1.157277    1.421974
      9          8           0       -0.233267    1.665076   -0.568738
     10          8           0        1.129081   -0.735435   -0.050919
     11          1           0        0.658223    1.029414    1.747436
     12          1           0       -0.672487    1.425963   -1.385382
     13          6           0        2.511228   -0.560341   -0.257473
     14          1           0        2.941051   -1.521992   -0.543259
     15          1           0        3.011963   -0.213362    0.654465
     16          1           0        2.708497    0.162525   -1.054743
 ---------------------------------------------------------------------

 SCF Done:  E(RPBE1PBE) =  -560.055456086     A.U. after   12 cycles

 The electronic state is 1-A.
 Alpha  occ. eigenvalues --  -66.25577 -19.20660 -19.19886 -10.26886 -10.21516
 Alpha  occ. eigenvalues --  -10.19955  -5.33230  -3.66747  -3.66669  -3.66485
 Alpha  occ. eigenvalues --   -1.04760  -1.02337  -0.77716  -0.70943  -0.63705
 Alpha  occ. eigenvalues --   -0.56541  -0.51571  -0.47260  -0.46946  -0.45782
 Alpha  occ. eigenvalues --   -0.43522  -0.41190  -0.38627  -0.37230  -0.36470
 Alpha  occ. eigenvalues --   -0.35287  -0.32355  -0.30683  -0.29017
 Alpha virt. eigenvalues --    0.02318   0.05160   0.05887   0.08012   0.09014
 Alpha virt. eigenvalues --    0.09694   0.11075   0.11487   0.11965   0.13186
 Alpha virt. eigenvalues --    0.13597   0.15133   0.16568   0.17854   0.19810

 Mulliken atomic charges:
              1
     1  H    0.129534
     2  C   -0.395243
     3  C   -0.305363
     4  H    0.094534
     5  H    0.142148
     6  H    0.118282
     7  Si   0.548092
     8  H    0.106861
     9  O   -0.527942
    10  O   -0.333873
    11  H   -0.051078
    12  H    0.319963
    13  C   -0.219567
    14  H    0.130729
    15  H    0.119227
    16  H    0.123696
 Sum of Mulliken atomic charges =   0.00000

 Dipole moment (field-independent basis, Debye):
    X=              0.3204    Y=             -0.6005    Z=             -0.6704  Tot=              0.9553
 Quadrupole moment (field-independent basis, Debye-Ang):
   XX=            -40.5851   YY=            -49.6689   ZZ=            -43.1121
   XY=             -0.7258   XZ=              0.4623   YZ=             -0.8160

 Normal termination of Gaussian 09 at Wed Aug  8 14:50:28 2018.
