 Gaussian 09, Revision C.01,
 Gaussian 09:  EM64L-G09RevC.01 23-Sep-2011

 --------------------------------------
 #SP PBE1PBE/Def2TZVP geom=connectivity
 --------------------------------------

 99/5=1,9=1/99;
 -------------
 Structure: 37
 -------------
 Charge =  0 Multiplicity = 1

                         Standard orientation:
 ---------------------------------------------------------------------
 Center     Atomic      Atomic             Coordinates (Angstroms)
 Number     Number       Type             X           Y           Z
 ---------------------------------------------------------------------
      1          1           0       -3.129801   -1.343276   -0.437840
      2          6           0       -2.158903   -0.872310   -0.611611
      3          6           0       -1.550691   -0.342937    0.686437
      4          1           0       -2.321031   -0.070566   -1.338409
      5          1           0       -1.509106   -1.616203   -1.079154
      6          1           0       -2.216750    0.394882    1.147296
      7         14           0        0.122806    0.445881    0.487947
      8          1           0       -1.446466   -1.155072    1.413790
      9          8           0       -0.180885    1.680483   -0.561102
     10          8           0        1.116552   -0.745704   -0.051184
     11          1           0        0.653893    1.015329    1.753030
     12          1           0       -0.610567    1.462233   -1.389625
     13          6           0        2.500421   -0.579689   -0.253674
     14          1           0        2.924062   -1.543252   -0.542238
     15          1           0        3.001375   -0.239920    0.660854
     16          1           0        2.704814    0.144900   -1.047578
 ---------------------------------------------------------------------

 SCF Done:  E(RPBE1PBE) =  -560.057056346     A.U. after   12 cycles

 The electronic state is 1-A.
 Alpha  occ. eigenvalues --  -66.25542 -19.20572 -19.19967 -10.26827 -10.21542
 Alpha  occ. eigenvalues --  -10.20088  -5.33195  -3.66712  -3.66631  -3.66454
 Alpha  occ. eigenvalues --   -1.04705  -1.02333  -0.77785  -0.70885  -0.63748
 Alpha  occ. eigenvalues --   -0.56559  -0.51516  -0.47201  -0.46897  -0.45796
 Alpha  occ. eigenvalues --   -0.43529  -0.41143  -0.38698  -0.37241  -0.36488
 Alpha  occ. eigenvalues --   -0.35353  -0.32290  -0.30626  -0.29178
 Alpha virt. eigenvalues --    0.02343   0.05228   0.05919   0.08030   0.09006
 Alpha virt. eigenvalues --    0.09784   0.11093   0.11404   0.12007   0.13251
 Alpha virt. eigenvalues --    0.13602   0.15143   0.16522   0.17715   0.19706

 Mulliken atomic charges:
              1
     1  H    0.129648
     2  C   -0.395280
     3  C   -0.305204
     4  H    0.096281
     5  H    0.142131
     6  H    0.118739
     7  Si   0.547012
     8  H    0.108531
     9  O   -0.528803
    10  O   -0.334558
    11  H   -0.053058
    12  H    0.320400
    13  C   -0.218603
    14  H    0.130446
    15  H    0.119012
    16  H    0.123305
 Sum of Mulliken atomic charges =   0.00000

 Dipole moment (field-independent basis, Debye):
    X=              0.2317    Y=             -0.6038    Z=             -0.7029  Tot=              0.9551
 Quadrupole moment (field-independent basis, Debye-Ang):
   XX=            -40.6633   YY=            -49.6356   ZZ=            -43.0598
   XY=             -0.8759   XZ=              0.3868   YZ=             -0.9795

 Normal termination of Gaussian 09 at Wed Aug  8 15:18:34 2018.
