 Gaussian 09, Revision C.01,
 Gaussian 09:  EM64L-G09RevC.01 23-Sep-2011

 --------------------------------------
 #SP PBE1PBE/Def2TZVP geom=connectivity
 --------------------------------------

 99/5=1,9=1/99;
 -------------
 Structure: 33
 -------------
 Charge =  0 Multiplicity = 1

                         Standard orientation:
 ---------------------------------------------------------------------
 Center     Atomic      Atomic             Coordinates (Angstroms)
 Number     Number       Type             X           Y           Z
 ---------------------------------------------------------------------
      1          1           0       -3.117026   -1.360699   -0.427683
      2          6           0       -2.149188   -0.884689   -0.604752
      3          6           0       -1.541505   -0.347975    0.690526
      4          1           0       -2.317329   -0.086055   -1.333605
      5          1           0       -1.496039   -1.626231   -1.071359
      6          1           0       -2.210893    0.387378    1.150501
      7         14           0        0.127046    0.449836    0.486419
      8          1           0       -1.431205   -1.157331    1.420078
      9          8           0       -0.222661    1.669213   -0.566734
     10          8           0        1.126569   -0.737627   -0.051123
     11          1           0        0.657310    1.026085    1.748766
     12          1           0       -0.660227    1.434186   -1.386568
     13          6           0        2.509066   -0.564279   -0.256815
     14          1           0        2.937672   -1.526250   -0.543351
     15          1           0        3.009837   -0.218921    0.655718
     16          1           0        2.707752    0.159105   -1.053263
 ---------------------------------------------------------------------

 SCF Done:  E(RPBE1PBE) =  -560.055817440     A.U. after   12 cycles

 The electronic state is 1-A.
 Alpha  occ. eigenvalues --  -66.25574 -19.20646 -19.19909 -10.26875 -10.21522
 Alpha  occ. eigenvalues --  -10.19985  -5.33226  -3.66742  -3.66664  -3.66482
 Alpha  occ. eigenvalues --   -1.04747  -1.02314  -0.77732  -0.70933  -0.63713
 Alpha  occ. eigenvalues --   -0.56527  -0.51554  -0.47249  -0.46938  -0.45784
 Alpha  occ. eigenvalues --   -0.43525  -0.41178  -0.38638  -0.37232  -0.36469
 Alpha  occ. eigenvalues --   -0.35298  -0.32342  -0.30674  -0.29053
 Alpha virt. eigenvalues --    0.02317   0.05172   0.05893   0.08015   0.09010
 Alpha virt. eigenvalues --    0.09710   0.11077   0.11468   0.11971   0.13199
 Alpha virt. eigenvalues --    0.13595   0.15134   0.16557   0.17822   0.19786

 Mulliken atomic charges:
              1
     1  H    0.129561
     2  C   -0.395246
     3  C   -0.305279
     4  H    0.094891
     5  H    0.142142
     6  H    0.118400
     7  Si   0.547941
     8  H    0.107226
     9  O   -0.528495
    10  O   -0.333990
    11  H   -0.051484
    12  H    0.320205
    13  C   -0.219376
    14  H    0.130676
    15  H    0.119193
    16  H    0.123636
 Sum of Mulliken atomic charges =   0.00000

 Dipole moment (field-independent basis, Debye):
    X=              0.3021    Y=             -0.6039    Z=             -0.6774  Tot=              0.9564
 Quadrupole moment (field-independent basis, Debye-Ang):
   XX=            -40.5991   YY=            -49.6699   ZZ=            -43.0997
   XY=             -0.7569   XZ=              0.4475   YZ=             -0.8518

 Normal termination of Gaussian 09 at Wed Aug  8 14:56:48 2018.
