 Gaussian 09, Revision C.01,
 Gaussian 09:  EM64L-G09RevC.01 23-Sep-2011

 --------------------------------------
 #SP PBE1PBE/Def2TZVP geom=connectivity
 --------------------------------------

 99/5=1,9=1/99;
 -------------
 Structure: 36
 -------------
 Charge =  0 Multiplicity = 1

                         Standard orientation:
 ---------------------------------------------------------------------
 Center     Atomic      Atomic             Coordinates (Angstroms)
 Number     Number       Type             X           Y           Z
 ---------------------------------------------------------------------
      1          1           0       -3.126648   -1.347477   -0.435630
      2          6           0       -2.156509   -0.875199   -0.610081
      3          6           0       -1.548412   -0.344410    0.687442
      4          1           0       -2.320141   -0.073995   -1.337137
      5          1           0       -1.505882   -1.618362   -1.077631
      6          1           0       -2.215295    0.392652    1.148320
      7         14           0        0.123859    0.446712    0.487790
      8          1           0       -1.442667   -1.156088    1.415086
      9          8           0       -0.191164    1.677899   -0.562439
     10          8           0        1.119039   -0.743680   -0.051330
     11          1           0        0.654758    1.017453    1.752370
     12          1           0       -0.623508    1.455403   -1.388748
     13          6           0        2.502568   -0.575776   -0.254574
     14          1           0        2.927442   -1.538855   -0.542942
     15          1           0        3.003490   -0.234906    0.659562
     16          1           0        2.705535    0.148768   -1.048885
 ---------------------------------------------------------------------

 SCF Done:  E(RPBE1PBE) =  -560.056767716     A.U. after   12 cycles

 The electronic state is 1-A.
 Alpha  occ. eigenvalues --  -66.25552 -19.20590 -19.19953 -10.26838 -10.21538
 Alpha  occ. eigenvalues --  -10.20064  -5.33205  -3.66721  -3.66641  -3.66463
 Alpha  occ. eigenvalues --   -1.04713  -1.02319  -0.77773  -0.70896  -0.63740
 Alpha  occ. eigenvalues --   -0.56544  -0.51522  -0.47212  -0.46907  -0.45794
 Alpha  occ. eigenvalues --   -0.43529  -0.41153  -0.38680  -0.37240  -0.36482
 Alpha  occ. eigenvalues --   -0.35339  -0.32302  -0.30637  -0.29150
 Alpha virt. eigenvalues --    0.02335   0.05213   0.05911   0.08026   0.09006
 Alpha virt. eigenvalues --    0.09766   0.11087   0.11420   0.11997   0.13237
 Alpha virt. eigenvalues --    0.13599   0.15140   0.16530   0.17742   0.19725

 Mulliken atomic charges:
              1
     1  H    0.129630
     2  C   -0.395262
     3  C   -0.305226
     4  H    0.095924
     5  H    0.142147
     6  H    0.118665
     7  Si   0.547274
     8  H    0.108223
     9  O   -0.528896
    10  O   -0.334404
    11  H   -0.052636
    12  H    0.320405
    13  C   -0.218800
    14  H    0.130499
    15  H    0.119050
    16  H    0.123407
 Sum of Mulliken atomic charges =   0.00000

 Dipole moment (field-independent basis, Debye):
    X=              0.2479    Y=             -0.6047    Z=             -0.6950  Tot=              0.9540
 Quadrupole moment (field-independent basis, Debye-Ang):
   XX=            -40.6455   YY=            -49.6463   ZZ=            -43.0702
   XY=             -0.8472   XZ=              0.4037   YZ=             -0.9464

 Normal termination of Gaussian 09 at Wed Aug  8 15:13:52 2018.
