 Gaussian 09, Revision C.01,
 Gaussian 09:  EM64L-G09RevC.01 23-Sep-2011

 --------------------------------------
 #SP PBE1PBE/Def2TZVP geom=connectivity
 --------------------------------------

 99/5=1,9=1/99;
 -------------
 Structure: 31
 -------------
 Charge =  0 Multiplicity = 1

                         Standard orientation:
 ---------------------------------------------------------------------
 Center     Atomic      Atomic             Coordinates (Angstroms)
 Number     Number       Type             X           Y           Z
 ---------------------------------------------------------------------
      1          1           0       -3.110733   -1.369097   -0.422022
      2          6           0       -2.144391   -0.890751   -0.600958
      3          6           0       -1.536952   -0.349821    0.692679
      4          1           0       -2.315451   -0.094015   -1.331207
      5          1           0       -1.489636   -1.631390   -1.066749
      6          1           0       -2.207936    0.384572    1.151864
      7         14           0        0.129180    0.452216    0.485396
      8          1           0       -1.423702   -1.157438    1.423704
      9          8           0       -0.243340    1.662241   -0.570061
     10          8           0        1.131477   -0.733519   -0.050794
     11          1           0        0.659059    1.032402    1.746099
     12          1           0       -0.684348    1.418688   -1.385479
     13          6           0        2.513288   -0.556740   -0.258164
     14          1           0        2.944287   -1.518076   -0.543236
     15          1           0        3.013978   -0.208209    0.653206
     16          1           0        2.709197    0.165633   -1.056216
 ---------------------------------------------------------------------

 SCF Done:  E(RPBE1PBE) =  -560.055117173     A.U. after   12 cycles

 The electronic state is 1-A.
 Alpha  occ. eigenvalues --  -66.25584 -19.20679 -19.19879 -10.26898 -10.21512
 Alpha  occ. eigenvalues --  -10.19929  -5.33237  -3.66753  -3.66676  -3.66491
 Alpha  occ. eigenvalues --   -1.04768  -1.02315  -0.77702  -0.70955  -0.63695
 Alpha  occ. eigenvalues --   -0.56521  -0.51576  -0.47272  -0.46956  -0.45779
 Alpha  occ. eigenvalues --   -0.43520  -0.41196  -0.38611  -0.37226  -0.36464
 Alpha  occ. eigenvalues --   -0.35272  -0.32367  -0.30695  -0.28983
 Alpha virt. eigenvalues --    0.02302   0.05144   0.05881   0.08007   0.09012
 Alpha virt. eigenvalues --    0.09676   0.11072   0.11501   0.11957   0.13174
 Alpha virt. eigenvalues --    0.13595   0.15130   0.16576   0.17875   0.19829

 Mulliken atomic charges:
              1
     1  H    0.129514
     2  C   -0.395228
     3  C   -0.305349
     4  H    0.094162
     5  H    0.142152
     6  H    0.118198
     7  Si   0.548300
     8  H    0.106532
     9  O   -0.528023
    10  O   -0.333742
    11  H   -0.050697
    12  H    0.320098
    13  C   -0.219741
    14  H    0.130787
    15  H    0.119275
    16  H    0.123762
 Sum of Mulliken atomic charges =   0.00000

 Dipole moment (field-independent basis, Debye):
    X=              0.3379    Y=             -0.6005    Z=             -0.6659  Tot=              0.9583
 Quadrupole moment (field-independent basis, Debye-Ang):
   XX=            -40.5714   YY=            -49.6783   ZZ=            -43.1197
   XY=             -0.6961   XZ=              0.4765   YZ=             -0.7862

 Normal termination of Gaussian 09 at Wed Aug  8 14:44:09 2018.
