 Gaussian 09, Revision C.01,
 Gaussian 09:  EM64L-G09RevC.01 23-Sep-2011

 --------------------------------------
 #SP PBE1PBE/Def2TZVP geom=connectivity
 --------------------------------------

 99/5=1,9=1/99;
 -------------
 Structure: 49
 -------------
 Charge =  0 Multiplicity = 1

                         Standard orientation:
 ---------------------------------------------------------------------
 Center     Atomic      Atomic             Coordinates (Angstroms)
 Number     Number       Type             X           Y           Z
 ---------------------------------------------------------------------
      1          1           0       -3.168868   -1.288112   -0.464349
      2          6           0       -2.188538   -0.833990   -0.629807
      3          6           0       -1.578541   -0.322873    0.674703
      4          1           0       -2.331707   -0.025478   -1.353081
      5          1           0       -1.549614   -1.587054   -1.097655
      6          1           0       -2.233794    0.424450    1.135739
      7         14           0        0.110193    0.436364    0.490410
      8          1           0       -1.493456   -1.140722    1.398134
      9          8           0       -0.052792    1.707616   -0.546729
     10          8           0        1.085280   -0.770192   -0.049493
     11          1           0        0.644005    0.989136    1.761728
     12          1           0       -0.456421    1.534464   -1.398645
     13          6           0        2.473124   -0.628343   -0.242940
     14          1           0        2.880867   -1.597886   -0.534362
     15          1           0        2.974718   -0.302750    0.676381
     16          1           0        2.695404    0.096710   -1.031597
 ---------------------------------------------------------------------

 SCF Done:  E(RPBE1PBE) =  -560.059775669     A.U. after   12 cycles

 The electronic state is 1-A.
 Alpha  occ. eigenvalues --  -66.25471 -19.20358 -19.20108 -10.26683 -10.21612
 Alpha  occ. eigenvalues --  -10.20400  -5.33127  -3.66645  -3.66554  -3.66394
 Alpha  occ. eigenvalues --   -1.04588  -1.02338  -0.77952  -0.70744  -0.63864
 Alpha  occ. eigenvalues --   -0.56616  -0.51387  -0.47061  -0.46785  -0.45854
 Alpha  occ. eigenvalues --   -0.43547  -0.41053  -0.38861  -0.37252  -0.36529
 Alpha  occ. eigenvalues --   -0.35498  -0.32131  -0.30508  -0.29487
 Alpha virt. eigenvalues --    0.02370   0.05379   0.05980   0.08043   0.08994
 Alpha virt. eigenvalues --    0.09986   0.11132   0.11232   0.12119   0.13389
 Alpha virt. eigenvalues --    0.13683   0.15171   0.16406   0.17300   0.19499

 Mulliken atomic charges:
              1
     1  H    0.129893
     2  C   -0.394980
     3  C   -0.305254
     4  H    0.100230
     5  H    0.142189
     6  H    0.119806
     7  Si   0.544224
     8  H    0.112332
     9  O   -0.529400
    10  O   -0.336315
    11  H   -0.057385
    12  H    0.320267
    13  C   -0.216037
    14  H    0.129779
    15  H    0.118459
    16  H    0.122193
 Sum of Mulliken atomic charges =   0.00000

 Dipole moment (field-independent basis, Debye):
    X=              0.0245    Y=             -0.6041    Z=             -0.7753  Tot=              0.9832
 Quadrupole moment (field-independent basis, Debye-Ang):
   XX=            -40.8569   YY=            -49.5229   ZZ=            -42.9637
   XY=             -1.2067   XZ=              0.1801   YZ=             -1.3212

 Normal termination of Gaussian 09 at Wed Aug  8 16:42:08 2018.
