 Gaussian 09, Revision C.01,
 Gaussian 09:  EM64L-G09RevC.01 23-Sep-2011

 --------------------------------------
 #SP PBE1PBE/Def2TZVP geom=connectivity
 --------------------------------------

 99/5=1,9=1/99;
 -------------
 Structure: 46
 -------------
 Charge =  0 Multiplicity = 1

                         Standard orientation:
 ---------------------------------------------------------------------
 Center     Atomic      Atomic             Coordinates (Angstroms)
 Number     Number       Type             X           Y           Z
 ---------------------------------------------------------------------
      1          1           0       -3.158881   -1.302550   -0.457888
      2          6           0       -2.180967   -0.843978   -0.625355
      3          6           0       -1.571459   -0.328407    0.677631
      4          1           0       -2.329054   -0.037022   -1.349375
      5          1           0       -1.539173   -1.594559   -1.093262
      6          1           0       -2.229565    0.416347    1.138758
      7         14           0        0.113373    0.438617    0.489905
      8          1           0       -1.481411   -1.144976    1.401907
      9          8           0       -0.085705    1.701309   -0.550113
     10          8           0        1.093373   -0.763942   -0.050021
     11          1           0        0.646450    0.995440    1.759762
     12          1           0       -0.495478    1.517409   -1.397159
     13          6           0        2.480237   -0.615737   -0.245716
     14          1           0        2.892145   -1.583681   -0.536593
     15          1           0        2.981651   -0.286665    0.672464
     16          1           0        2.697894    0.109418   -1.035568
 ---------------------------------------------------------------------

 SCF Done:  E(RPBE1PBE) =  -560.059218340     A.U. after   12 cycles

 The electronic state is 1-A.
 Alpha  occ. eigenvalues --  -66.25479 -19.20409 -19.20082 -10.26719 -10.21591
 Alpha  occ. eigenvalues --  -10.20317  -5.33136  -3.66653  -3.66565  -3.66401
 Alpha  occ. eigenvalues --   -1.04616  -1.02346  -0.77906  -0.70778  -0.63831
 Alpha  occ. eigenvalues --   -0.56611  -0.51423  -0.47095  -0.46812  -0.45834
 Alpha  occ. eigenvalues --   -0.43540  -0.41070  -0.38826  -0.37250  -0.36524
 Alpha  occ. eigenvalues --   -0.35465  -0.32171  -0.30533  -0.29414
 Alpha virt. eigenvalues --    0.02367   0.05344   0.05968   0.08044   0.08996
 Alpha virt. eigenvalues --    0.09941   0.11134   0.11265   0.12091   0.13362
 Alpha virt. eigenvalues --    0.13652   0.15164   0.16439   0.17419   0.19546

 Mulliken atomic charges:
              1
     1  H    0.129830
     2  C   -0.395144
     3  C   -0.305188
     4  H    0.099260
     5  H    0.142150
     6  H    0.119507
     7  Si   0.544873
     8  H    0.111358
     9  O   -0.529167
    10  O   -0.335890
    11  H   -0.056381
    12  H    0.320500
    13  C   -0.216716
    14  H    0.129945
    15  H    0.118605
    16  H    0.122459
 Sum of Mulliken atomic charges =   0.00000

 Dipole moment (field-independent basis, Debye):
    X=              0.0779    Y=             -0.6020    Z=             -0.7601  Tot=              0.9728
 Quadrupole moment (field-independent basis, Debye-Ang):
   XX=            -40.8119   YY=            -49.5494   ZZ=            -42.9817
   XY=             -1.1252   XZ=              0.2344   YZ=             -1.2432

 Normal termination of Gaussian 09 at Wed Aug  8 16:22:58 2018.
