 Gaussian 09, Revision C.01,
 Gaussian 09:  EM64L-G09RevC.01 23-Sep-2011

 --------------------------------------
 #SP PBE1PBE/Def2TZVP geom=connectivity
 --------------------------------------

 99/5=1,9=1/99;
 -------------
 Structure: 44
 -------------
 Charge =  0 Multiplicity = 1

                         Standard orientation:
 ---------------------------------------------------------------------
 Center     Atomic      Atomic             Coordinates (Angstroms)
 Number     Number       Type             X           Y           Z
 ---------------------------------------------------------------------
      1          1           0       -3.152334   -1.311741   -0.454100
      2          6           0       -2.176006   -0.850212   -0.622692
      3          6           0       -1.566799   -0.332319    0.679513
      4          1           0       -2.327299   -0.043964   -1.346839
      5          1           0       -1.532364   -1.598970   -1.090982
      6          1           0       -2.226742    0.410560    1.141040
      7         14           0        0.115472    0.439834    0.489855
      8          1           0       -1.473515   -1.148358    1.403976
      9          8           0       -0.107127    1.697583   -0.552248
     10          8           0        1.098640   -0.759881   -0.050636
     11          1           0        0.648088    0.998733    1.758994
     12          1           0       -0.521868    1.507113   -1.394380
     13          6           0        2.484846   -0.607466   -0.247758
     14          1           0        2.899450   -1.574235   -0.538716
     15          1           0        2.986153   -0.276535    0.669813
     16          1           0        2.699482    0.118087   -1.038071
 ---------------------------------------------------------------------

 SCF Done:  E(RPBE1PBE) =  -560.058808428     A.U. after   12 cycles

 The electronic state is 1-A.
 Alpha  occ. eigenvalues --  -66.25499 -19.20447 -19.20048 -10.26743 -10.21580
 Alpha  occ. eigenvalues --  -10.20269  -5.33154  -3.66671  -3.66585  -3.66418
 Alpha  occ. eigenvalues --   -1.04637  -1.02352  -0.77881  -0.70803  -0.63814
 Alpha  occ. eigenvalues --   -0.56607  -0.51445  -0.47119  -0.46831  -0.45825
 Alpha  occ. eigenvalues --   -0.43538  -0.41089  -0.38793  -0.37250  -0.36514
 Alpha  occ. eigenvalues --   -0.35440  -0.32198  -0.30553  -0.29370
 Alpha virt. eigenvalues --    0.02373   0.05320   0.05957   0.08042   0.09001
 Alpha virt. eigenvalues --    0.09907   0.11123   0.11293   0.12071   0.13338
 Alpha virt. eigenvalues --    0.13636   0.15159   0.16458   0.17491   0.19579

 Mulliken atomic charges:
              1
     1  H    0.129789
     2  C   -0.395143
     3  C   -0.305179
     4  H    0.098632
     5  H    0.142135
     6  H    0.119351
     7  Si   0.545504
     8  H    0.110755
     9  O   -0.529256
    10  O   -0.335559
    11  H   -0.055616
    12  H    0.320313
    13  C   -0.217164
    14  H    0.130056
    15  H    0.118692
    16  H    0.122690
 Sum of Mulliken atomic charges =   0.00000

 Dipole moment (field-independent basis, Debye):
    X=              0.1112    Y=             -0.6036    Z=             -0.7447  Tot=              0.9651
 Quadrupole moment (field-independent basis, Debye-Ang):
   XX=            -40.7749   YY=            -49.5700   ZZ=            -43.0007
   XY=             -1.0725   XZ=              0.2705   YZ=             -1.1861

 Normal termination of Gaussian 09 at Wed Aug  8 16:10:03 2018.
