 Gaussian 09, Revision C.01,
 Gaussian 09:  EM64L-G09RevC.01 23-Sep-2011

 --------------------------------------
 #SP PBE1PBE/Def2TZVP geom=connectivity
 --------------------------------------

 99/5=1,9=1/99;
 -------------
 Structure: 47
 -------------
 Charge =  0 Multiplicity = 1

                         Standard orientation:
 ---------------------------------------------------------------------
 Center     Atomic      Atomic             Coordinates (Angstroms)
 Number     Number       Type             X           Y           Z
 ---------------------------------------------------------------------
      1          1           0       -3.162337   -1.297392   -0.460738
      2          6           0       -2.183590   -0.840253   -0.627251
      3          6           0       -1.573909   -0.326965    0.676555
      4          1           0       -2.329987   -0.032342   -1.350550
      5          1           0       -1.542782   -1.591419   -1.095572
      6          1           0       -2.231035    0.418408    1.138081
      7         14           0        0.112269    0.437491    0.490449
      8          1           0       -1.485566   -1.144395    1.400070
      9          8           0       -0.074306    1.704137   -0.548680
     10          8           0        1.090581   -0.766133   -0.050164
     11          1           0        0.645603    0.992189    1.761129
     12          1           0       -0.482135    1.524771   -1.396862
     13          6           0        2.477785   -0.620000   -0.245003
     14          1           0        2.888262   -1.588328   -0.536625
     15          1           0        2.979265   -0.292655    0.673759
     16          1           0        2.697032    0.105577   -1.034026
 ---------------------------------------------------------------------

 SCF Done:  E(RPBE1PBE) =  -560.059422723     A.U. after   12 cycles

 The electronic state is 1-A.
 Alpha  occ. eigenvalues --  -66.25486 -19.20394 -19.20081 -10.26707 -10.21598
 Alpha  occ. eigenvalues --  -10.20349  -5.33141  -3.66659  -3.66569  -3.66406
 Alpha  occ. eigenvalues --   -1.04606  -1.02340  -0.77924  -0.70768  -0.63844
 Alpha  occ. eigenvalues --   -0.56613  -0.51410  -0.47084  -0.46803  -0.45841
 Alpha  occ. eigenvalues --   -0.43543  -0.41069  -0.38829  -0.37252  -0.36520
 Alpha  occ. eigenvalues --   -0.35474  -0.32157  -0.30525  -0.29444
 Alpha virt. eigenvalues --    0.02374   0.05355   0.05970   0.08042   0.08997
 Alpha virt. eigenvalues --    0.09956   0.11132   0.11250   0.12100   0.13370
 Alpha virt. eigenvalues --    0.13661   0.15166   0.16426   0.17377   0.19529

 Mulliken atomic charges:
              1
     1  H    0.129849
     2  C   -0.395053
     3  C   -0.305171
     4  H    0.099626
     5  H    0.142156
     6  H    0.119627
     7  Si   0.544852
     8  H    0.111716
     9  O   -0.529570
    10  O   -0.335999
    11  H   -0.056653
    12  H    0.320271
    13  C   -0.216491
    14  H    0.129889
    15  H    0.118548
    16  H    0.122402
 Sum of Mulliken atomic charges =   0.00000

 Dipole moment (field-independent basis, Debye):
    X=              0.0590    Y=             -0.6044    Z=             -0.7624  Tot=              0.9747
 Quadrupole moment (field-independent basis, Debye-Ang):
   XX=            -40.8244   YY=            -49.5424   ZZ=            -42.9767
   XY=             -1.1543   XZ=              0.2159   YZ=             -1.2700

 Normal termination of Gaussian 09 at Wed Aug  8 16:29:25 2018.
