 Gaussian 09, Revision C.01,
 Gaussian 09:  EM64L-G09RevC.01 23-Sep-2011

 --------------------------------------
 #SP PBE1PBE/Def2TZVP geom=connectivity
 --------------------------------------

 99/5=1,9=1/99;
 ------------
 Structure: 4
 ------------
 Charge =  0 Multiplicity = 1

                         Standard orientation:
 ---------------------------------------------------------------------
 Center     Atomic      Atomic             Coordinates (Angstroms)
 Number     Number       Type             X           Y           Z
 ---------------------------------------------------------------------
      1          1           0       -3.032359   -1.466819   -0.324921
      2          6           0       -2.083934   -0.966752   -0.537223
      3          6           0       -1.479213   -0.350105    0.723389
      4          1           0       -2.288795   -0.208987   -1.299548
      5          1           0       -1.411253   -1.706391   -0.978408
      6          1           0       -2.167990    0.382494    1.158460
      7         14           0        0.157921    0.493911    0.459471
      8          1           0       -1.331772   -1.120517    1.487716
      9          8           0       -0.503826    1.544349   -0.624873
     10          8           0        1.191363   -0.682368   -0.036951
     11          1           0        0.683492    1.145856    1.686461
     12          1           0       -0.984064    1.172299   -1.365894
     13          6           0        2.564330   -0.471624   -0.269764
     14          1           0        3.022527   -1.430646   -0.517813
     15          1           0        3.064104   -0.067416    0.618831
     16          1           0        2.727822    0.220411   -1.101298
 ---------------------------------------------------------------------

 SCF Done:  E(RPBE1PBE) =  -560.040731062     A.U. after   13 cycles

 The electronic state is 1-A.
 Alpha  occ. eigenvalues --  -66.25816 -19.21149 -19.19316 -10.27203 -10.21432
 Alpha  occ. eigenvalues --  -10.19208  -5.33462  -3.66983  -3.66916  -3.66690
 Alpha  occ. eigenvalues --   -1.05076  -1.02146  -0.77353  -0.71265  -0.63531
 Alpha  occ. eigenvalues --   -0.56307  -0.51825  -0.47588  -0.47225  -0.45822
 Alpha  occ. eigenvalues --   -0.43491  -0.41478  -0.38211  -0.37050  -0.36348
 Alpha  occ. eigenvalues --   -0.34875  -0.32662  -0.31006  -0.27805
 Alpha virt. eigenvalues --    0.01796   0.04789   0.05696   0.07770   0.09052
 Alpha virt. eigenvalues --    0.09294   0.11043   0.11673   0.11941   0.12975
 Alpha virt. eigenvalues --    0.13689   0.15069   0.16800   0.18281   0.20342

 Mulliken atomic charges:
              1
     1  H    0.129050
     2  C   -0.392122
     3  C   -0.307694
     4  H    0.084400
     5  H    0.142569
     6  H    0.115990
     7  Si   0.551754
     8  H    0.096413
     9  O   -0.519400
    10  O   -0.330757
    11  H   -0.039054
    12  H    0.314769
    13  C   -0.223653
    14  H    0.132338
    15  H    0.120341
    16  H    0.125056
 Sum of Mulliken atomic charges =   0.00000

 Dipole moment (field-independent basis, Debye):
    X=              0.8183    Y=             -0.5554    Z=             -0.5091  Tot=              1.1123
 Quadrupole moment (field-independent basis, Debye-Ang):
   XX=            -40.2112   YY=            -49.6634   ZZ=            -43.5332
   XY=              0.1868   XZ=              0.7412   YZ=              0.2164

 Normal termination of Gaussian 09 at Wed Aug  8 16:49:17 2018.
