 Gaussian 09, Revision C.01,
 Gaussian 09:  EM64L-G09RevC.01 23-Sep-2011

 --------------------------------------
 #SP PBE1PBE/Def2TZVP geom=connectivity
 --------------------------------------

 99/5=1,9=1/99;
 -------------
 Structure: 41
 -------------
 Charge =  0 Multiplicity = 1

                         Standard orientation:
 ---------------------------------------------------------------------
 Center     Atomic      Atomic             Coordinates (Angstroms)
 Number     Number       Type             X           Y           Z
 ---------------------------------------------------------------------
      1          1           0       -3.142684   -1.325310   -0.447682
      2          6           0       -2.168687   -0.859607   -0.618272
      3          6           0       -1.559911   -0.337380    0.682403
      4          1           0       -2.324662   -0.054938   -1.343182
      5          1           0       -1.522371   -1.606041   -1.086589
      6          1           0       -2.222511    0.403093    1.143990
      7         14           0        0.118593    0.442089    0.489332
      8          1           0       -1.461901   -1.152100    1.407727
      9          8           0       -0.138753    1.691222   -0.555667
     10          8           0        1.106353   -0.753860   -0.051132
     11          1           0        0.650546    1.004936    1.757004
     12          1           0       -0.559939    1.488696   -1.392571
     13          6           0        2.491570   -0.595461   -0.250475
     14          1           0        2.910089   -1.560714   -0.540857
     15          1           0        2.992725   -0.261153    0.665954
     16          1           0        2.701787    0.130076   -1.041989
 ---------------------------------------------------------------------

 SCF Done:  E(RPBE1PBE) =  -560.058125650     A.U. after   12 cycles

 The electronic state is 1-A.
 Alpha  occ. eigenvalues --  -66.25521 -19.20502 -19.20017 -10.26780 -10.21564
 Alpha  occ. eigenvalues --  -10.20194  -5.33174  -3.66691  -3.66607  -3.66436
 Alpha  occ. eigenvalues --   -1.04664  -1.02331  -0.77841  -0.70839  -0.63786
 Alpha  occ. eigenvalues --   -0.56574  -0.51472  -0.47155  -0.46860  -0.45812
 Alpha  occ. eigenvalues --   -0.43536  -0.41112  -0.38751  -0.37247  -0.36499
 Alpha  occ. eigenvalues --   -0.35402  -0.32238  -0.30584  -0.29294
 Alpha virt. eigenvalues --    0.02359   0.05280   0.05940   0.08037   0.09002
 Alpha virt. eigenvalues --    0.09854   0.11108   0.11338   0.12042   0.13301
 Alpha virt. eigenvalues --    0.13615   0.15151   0.16484   0.17589   0.19630

 Mulliken atomic charges:
              1
     1  H    0.129733
     2  C   -0.395246
     3  C   -0.305102
     4  H    0.097664
     5  H    0.142130
     6  H    0.119104
     7  Si   0.546166
     8  H    0.109827
     9  O   -0.529362
    10  O   -0.335103
    11  H   -0.054507
    12  H    0.320457
    13  C   -0.217795
    14  H    0.130225
    15  H    0.118832
    16  H    0.122977
 Sum of Mulliken atomic charges =   0.00000

 Dipole moment (field-independent basis, Debye):
    X=              0.1627    Y=             -0.6062    Z=             -0.7262  Tot=              0.9598
 Quadrupole moment (field-independent basis, Debye-Ang):
   XX=            -40.7261   YY=            -49.6053   ZZ=            -43.0234
   XY=             -0.9889   XZ=              0.3211   YZ=             -1.0991

 Normal termination of Gaussian 09 at Wed Aug  8 15:50:54 2018.
