 Gaussian 09, Revision C.01,
 Gaussian 09:  EM64L-G09RevC.01 23-Sep-2011

 --------------------------------------
 #SP PBE1PBE/Def2TZVP geom=connectivity
 --------------------------------------

 99/5=1,9=1/99;
 -------------
 Structure: 42
 -------------
 Charge =  0 Multiplicity = 1

                         Standard orientation:
 ---------------------------------------------------------------------
 Center     Atomic      Atomic             Coordinates (Angstroms)
 Number     Number       Type             X           Y           Z
 ---------------------------------------------------------------------
      1          1           0       -3.145857   -1.320971   -0.449686
      2          6           0       -2.171094   -0.856655   -0.619672
      3          6           0       -1.562183   -0.335688    0.681446
      4          1           0       -2.325529   -0.051556   -1.344433
      5          1           0       -1.525649   -1.603910   -1.087883
      6          1           0       -2.223918    0.405632    1.142916
      7         14           0        0.117560    0.441363    0.489410
      8          1           0       -1.465726   -1.150753    1.406589
      9          8           0       -0.128366    1.693618   -0.554522
     10          8           0        1.103822   -0.755889   -0.050908
     11          1           0        0.649724    1.003074    1.757497
     12          1           0       -0.547288    1.493905   -1.393275
     13          6           0        2.489368   -0.599474   -0.249531
     14          1           0        2.906607   -1.565261   -0.539979
     15          1           0        2.990568   -0.266159    0.667235
     16          1           0        2.701039    0.125973   -1.040740
 ---------------------------------------------------------------------

 SCF Done:  E(RPBE1PBE) =  -560.058364815     A.U. after   12 cycles

 The electronic state is 1-A.
 Alpha  occ. eigenvalues --  -66.25513 -19.20486 -19.20032 -10.26769 -10.21570
 Alpha  occ. eigenvalues --  -10.20220  -5.33167  -3.66684  -3.66599  -3.66430
 Alpha  occ. eigenvalues --   -1.04656  -1.02336  -0.77855  -0.70828  -0.63795
 Alpha  occ. eigenvalues --   -0.56575  -0.51463  -0.47144  -0.46852  -0.45818
 Alpha  occ. eigenvalues --   -0.43538  -0.41103  -0.38771  -0.37248  -0.36505
 Alpha  occ. eigenvalues --   -0.35416  -0.32226  -0.30576  -0.29321
 Alpha virt. eigenvalues --    0.02361   0.05293   0.05945   0.08039   0.09001
 Alpha virt. eigenvalues --    0.09871   0.11113   0.11321   0.12051   0.13313
 Alpha virt. eigenvalues --    0.13620   0.15153   0.16475   0.17555   0.19613

 Mulliken atomic charges:
              1
     1  H    0.129759
     2  C   -0.395255
     3  C   -0.305117
     4  H    0.098008
     5  H    0.142140
     6  H    0.119203
     7  Si   0.545813
     8  H    0.110143
     9  O   -0.529254
    10  O   -0.335250
    11  H   -0.054896
    12  H    0.320437
    13  C   -0.217592
    14  H    0.130174
    15  H    0.118796
    16  H    0.122889
 Sum of Mulliken atomic charges =   0.00000

 Dipole moment (field-independent basis, Debye):
    X=              0.1461    Y=             -0.6077    Z=             -0.7324  Tot=              0.9628
 Quadrupole moment (field-independent basis, Debye-Ang):
   XX=            -40.7412   YY=            -49.6001   ZZ=            -43.0165
   XY=             -1.0149   XZ=              0.3035   YZ=             -1.1250

 Normal termination of Gaussian 09 at Wed Aug  8 15:57:12 2018.
