 Gaussian 09, Revision C.01,
 Gaussian 09:  EM64L-G09RevC.01 23-Sep-2011

 --------------------------------------
 #SP PBE1PBE/Def2TZVP geom=connectivity
 --------------------------------------

 99/5=1,9=1/99;
 -------------
 Structure: 43
 -------------
 Charge =  0 Multiplicity = 1

                         Standard orientation:
 ---------------------------------------------------------------------
 Center     Atomic      Atomic             Coordinates (Angstroms)
 Number     Number       Type             X           Y           Z
 ---------------------------------------------------------------------
      1          1           0       -3.149175   -1.316108   -0.452065
      2          6           0       -2.173610   -0.853193   -0.621274
      3          6           0       -1.564544   -0.333985    0.680473
      4          1           0       -2.326440   -0.047401   -1.345606
      5          1           0       -1.529088   -1.601151   -1.089633
      6          1           0       -2.225361    0.408068    1.142080
      7         14           0        0.116495    0.440588    0.489761
      8          1           0       -1.469708   -1.149653    1.405152
      9          8           0       -0.117533    1.695234   -0.553488
     10          8           0        1.101173   -0.757848   -0.050818
     11          1           0        0.648894    1.000679    1.758465
     12          1           0       -0.534109    1.501042   -1.393628
     13          6           0        2.487058   -0.603451   -0.248654
     14          1           0        2.902948   -1.569701   -0.539502
     15          1           0        2.988316   -0.271488    0.668570
     16          1           0        2.700244    0.122164   -1.039302
 ---------------------------------------------------------------------

 SCF Done:  E(RPBE1PBE) =  -560.058590552     A.U. after   12 cycles

 The electronic state is 1-A.
 Alpha  occ. eigenvalues --  -66.25505 -19.20464 -19.20034 -10.26755 -10.21574
 Alpha  occ. eigenvalues --  -10.20243  -5.33160  -3.66677  -3.66591  -3.66423
 Alpha  occ. eigenvalues --   -1.04647  -1.02355  -0.77867  -0.70814  -0.63804
 Alpha  occ. eigenvalues --   -0.56606  -0.51457  -0.47131  -0.46840  -0.45820
 Alpha  occ. eigenvalues --   -0.43537  -0.41098  -0.38780  -0.37250  -0.36510
 Alpha  occ. eigenvalues --   -0.35429  -0.32211  -0.30562  -0.29345
 Alpha virt. eigenvalues --    0.02373   0.05307   0.05952   0.08041   0.09002
 Alpha virt. eigenvalues --    0.09891   0.11118   0.11308   0.12063   0.13326
 Alpha virt. eigenvalues --    0.13629   0.15157   0.16467   0.17526   0.19596

 Mulliken atomic charges:
              1
     1  H    0.129768
     2  C   -0.395195
     3  C   -0.305149
     4  H    0.098328
     5  H    0.142130
     6  H    0.119258
     7  Si   0.545715
     8  H    0.110443
     9  O   -0.529175
    10  O   -0.335414
    11  H   -0.055246
    12  H    0.320290
    13  C   -0.217373
    14  H    0.130110
    15  H    0.118732
    16  H    0.122778
 Sum of Mulliken atomic charges =   0.00000

 Dipole moment (field-independent basis, Debye):
    X=              0.1284    Y=             -0.6034    Z=             -0.7383  Tot=              0.9621
 Quadrupole moment (field-independent basis, Debye-Ang):
   XX=            -40.7599   YY=            -49.5788   ZZ=            -43.0080
   XY=             -1.0448   XZ=              0.2869   YZ=             -1.1572

 Normal termination of Gaussian 09 at Wed Aug  8 16:03:39 2018.
