 Gaussian 09, Revision C.01,
 Gaussian 09:  EM64L-G09RevC.01 23-Sep-2011

 --------------------------------------
 #SP PBE1PBE/Def2TZVP geom=connectivity
 --------------------------------------

 99/5=1,9=1/99;
 -------------
 Structure: 45
 -------------
 Charge =  0 Multiplicity = 1

                         Standard orientation:
 ---------------------------------------------------------------------
 Center     Atomic      Atomic             Coordinates (Angstroms)
 Number     Number       Type             X           Y           Z
 ---------------------------------------------------------------------
      1          1           0       -3.155545   -1.307270   -0.456138
      2          6           0       -2.178439   -0.847167   -0.624116
      3          6           0       -1.569097   -0.330564    0.678539
      4          1           0       -2.328157   -0.040485   -1.348107
      5          1           0       -1.535695   -1.596761   -1.092301
      6          1           0       -2.228147    0.413178    1.139952
      7         14           0        0.114431    0.439105    0.489934
      8          1           0       -1.477402   -1.146949    1.402815
      9          8           0       -0.096675    1.699897   -0.551059
     10          8           0        1.096056   -0.761938   -0.050413
     11          1           0        0.647260    0.996838    1.759496
     12          1           0       -0.508227    1.512665   -1.395187
     13          6           0        2.482588   -0.611558   -0.246806
     14          1           0        2.895877   -1.578868   -0.537834
     15          1           0        2.983939   -0.281645    0.671108
     16          1           0        2.698709    0.113895   -1.036805
 ---------------------------------------------------------------------

 SCF Done:  E(RPBE1PBE) =  -560.059017007     A.U. after   12 cycles

 The electronic state is 1-A.
 Alpha  occ. eigenvalues --  -66.25494 -19.20432 -19.20058 -10.26733 -10.21585
 Alpha  occ. eigenvalues --  -10.20294  -5.33149  -3.66667  -3.66579  -3.66414
 Alpha  occ. eigenvalues --   -1.04630  -1.02357  -0.77894  -0.70793  -0.63823
 Alpha  occ. eigenvalues --   -0.56613  -0.51437  -0.47109  -0.46824  -0.45829
 Alpha  occ. eigenvalues --   -0.43540  -0.41081  -0.38809  -0.37251  -0.36517
 Alpha  occ. eigenvalues --   -0.35452  -0.32187  -0.30546  -0.29394
 Alpha virt. eigenvalues --    0.02376   0.05332   0.05962   0.08042   0.09001
 Alpha virt. eigenvalues --    0.09922   0.11127   0.11277   0.12081   0.13349
 Alpha virt. eigenvalues --    0.13643   0.15161   0.16448   0.17454   0.19563

 Mulliken atomic charges:
              1
     1  H    0.129806
     2  C   -0.395160
     3  C   -0.305138
     4  H    0.099001
     5  H    0.142129
     6  H    0.119440
     7  Si   0.545239
     8  H    0.111061
     9  O   -0.529222
    10  O   -0.335702
    11  H   -0.055980
    12  H    0.320220
    13  C   -0.216951
    14  H    0.130010
    15  H    0.118658
    16  H    0.122588
 Sum of Mulliken atomic charges =   0.00000

 Dipole moment (field-independent basis, Debye):
    X=              0.0961    Y=             -0.6047    Z=             -0.7513  Tot=              0.9692
 Quadrupole moment (field-independent basis, Debye-Ang):
   XX=            -40.7917   YY=            -49.5635   ZZ=            -42.9923
   XY=             -1.0971   XZ=              0.2504   YZ=             -1.2134

 Normal termination of Gaussian 09 at Wed Aug  8 16:16:26 2018.
