 Gaussian 09, Revision C.01,
 Gaussian 09:  EM64L-G09RevC.01 23-Sep-2011

 --------------------------------------
 #SP PBE1PBE/Def2TZVP geom=connectivity
 --------------------------------------

 99/5=1,9=1/99;
 -------------
 Structure: 40
 -------------
 Charge =  0 Multiplicity = 1

                         Standard orientation:
 ---------------------------------------------------------------------
 Center     Atomic      Atomic             Coordinates (Angstroms)
 Number     Number       Type             X           Y           Z
 ---------------------------------------------------------------------
      1          1           0       -3.139508   -1.329661   -0.445504
      2          6           0       -2.166278   -0.862607   -0.616768
      3          6           0       -1.557634   -0.338931    0.683387
      4          1           0       -2.323781   -0.058479   -1.341947
      5          1           0       -1.519098   -1.608296   -1.085079
      6          1           0       -2.221093    0.400771    1.144978
      7         14           0        0.119633    0.442911    0.489164
      8          1           0       -1.458080   -1.153195    1.409012
      9          8           0       -0.149111    1.688734   -0.557079
     10          8           0        1.108879   -0.751824   -0.051267
     11          1           0        0.651378    1.007080    1.756335
     12          1           0       -0.572919    1.482159   -1.390820
     13          6           0        2.493766   -0.591484   -0.251351
     14          1           0        2.913556   -1.556249   -0.541523
     15          1           0        2.994877   -0.256049    0.664690
     16          1           0        2.702537    0.134019   -1.043279
 ---------------------------------------------------------------------

 SCF Done:  E(RPBE1PBE) =  -560.057880768     A.U. after   12 cycles

 The electronic state is 1-A.
 Alpha  occ. eigenvalues --  -66.25529 -19.20520 -19.19998 -10.26792 -10.21560
 Alpha  occ. eigenvalues --  -10.20171  -5.33182  -3.66699  -3.66616  -3.66443
 Alpha  occ. eigenvalues --   -1.04676  -1.02342  -0.77829  -0.70851  -0.63779
 Alpha  occ. eigenvalues --   -0.56575  -0.51484  -0.47167  -0.46870  -0.45810
 Alpha  occ. eigenvalues --   -0.43536  -0.41123  -0.38739  -0.37248  -0.36497
 Alpha  occ. eigenvalues --   -0.35391  -0.32251  -0.30595  -0.29270
 Alpha virt. eigenvalues --    0.02362   0.05268   0.05934   0.08035   0.09005
 Alpha virt. eigenvalues --    0.09837   0.11102   0.11353   0.12033   0.13287
 Alpha virt. eigenvalues --    0.13611   0.15149   0.16493   0.17622   0.19649

 Mulliken atomic charges:
              1
     1  H    0.129717
     2  C   -0.395238
     3  C   -0.305171
     4  H    0.097345
     5  H    0.142142
     6  H    0.119033
     7  Si   0.546366
     8  H    0.109528
     9  O   -0.529133
    10  O   -0.334952
    11  H   -0.054128
    12  H    0.320260
    13  C   -0.218006
    14  H    0.130278
    15  H    0.118871
    16  H    0.123086
 Sum of Mulliken atomic charges =   0.00000

 Dipole moment (field-independent basis, Debye):
    X=              0.1786    Y=             -0.6070    Z=             -0.7176  Tot=              0.9567
 Quadrupole moment (field-independent basis, Debye-Ang):
   XX=            -40.7069   YY=            -49.6146   ZZ=            -43.0364
   XY=             -0.9612   XZ=              0.3380   YZ=             -1.0653

 Normal termination of Gaussian 09 at Wed Aug  8 15:44:36 2018.
