 Gaussian 09, Revision C.01,
 Gaussian 09:  EM64L-G09RevC.01 23-Sep-2011

 --------------------------------------
 #SP PBE1PBE/Def2TZVP geom=connectivity
 --------------------------------------

 99/5=1,9=1/99;
 -------------
 Structure: 48
 -------------
 Charge =  0 Multiplicity = 1

                         Standard orientation:
 ---------------------------------------------------------------------
 Center     Atomic      Atomic             Coordinates (Angstroms)
 Number     Number       Type             X           Y           Z
 ---------------------------------------------------------------------
      1          1           0       -3.165674   -1.292646   -0.462434
      2          6           0       -2.186118   -0.837065   -0.628463
      3          6           0       -1.576273   -0.324733    0.675643
      4          1           0       -2.330869   -0.028930   -1.351843
      5          1           0       -1.546271   -1.589255   -1.096455
      6          1           0       -2.232444    0.421689    1.136832
      7         14           0        0.111211    0.437039    0.490371
      8          1           0       -1.489592   -1.142294    1.399210
      9          8           0       -0.063303    1.705448   -0.547842
     10          8           0        1.087878   -0.768145   -0.049740
     11          1           0        0.644791    0.990902    1.761312
     12          1           0       -0.469254    1.529552   -1.397948
     13          6           0        2.475410   -0.624221   -0.243887
     14          1           0        2.884492   -1.593203   -0.535294
     15          1           0        2.976950   -0.297662    0.675122
     16          1           0        2.696204    0.100999   -1.032808
 ---------------------------------------------------------------------

 SCF Done:  E(RPBE1PBE) =  -560.059605607     A.U. after   12 cycles

 The electronic state is 1-A.
 Alpha  occ. eigenvalues --  -66.25473 -19.20372 -19.20097 -10.26693 -10.21604
 Alpha  occ. eigenvalues --  -10.20373  -5.33130  -3.66648  -3.66557  -3.66396
 Alpha  occ. eigenvalues --   -1.04596  -1.02344  -0.77937  -0.70754  -0.63853
 Alpha  occ. eigenvalues --   -0.56621  -0.51399  -0.47071  -0.46792  -0.45847
 Alpha  occ. eigenvalues --   -0.43544  -0.41060  -0.38847  -0.37252  -0.36528
 Alpha  occ. eigenvalues --   -0.35488  -0.32142  -0.30514  -0.29465
 Alpha virt. eigenvalues --    0.02372   0.05368   0.05976   0.08044   0.08995
 Alpha virt. eigenvalues --    0.09973   0.11135   0.11241   0.12110   0.13381
 Alpha virt. eigenvalues --    0.13673   0.15169   0.16417   0.17341   0.19514

 Mulliken atomic charges:
              1
     1  H    0.129871
     2  C   -0.395008
     3  C   -0.305256
     4  H    0.099905
     5  H    0.142176
     6  H    0.119702
     7  Si   0.544500
     8  H    0.112019
     9  O   -0.529344
    10  O   -0.336181
    11  H   -0.057052
    12  H    0.320322
    13  C   -0.216256
    14  H    0.129826
    15  H    0.118496
    16  H    0.122281
 Sum of Mulliken atomic charges =   0.00000

 Dipole moment (field-independent basis, Debye):
    X=              0.0408    Y=             -0.6020    Z=             -0.7699  Tot=              0.9782
 Quadrupole moment (field-independent basis, Debye-Ang):
   XX=            -40.8426   YY=            -49.5273   ZZ=            -42.9697
   XY=             -1.1821   XZ=              0.1989   YZ=             -1.2974

 Normal termination of Gaussian 09 at Wed Aug  8 16:35:49 2018.
