 Gaussian 09, Revision C.01,
 Gaussian 09:  EM64L-G09RevC.01 23-Sep-2011

 --------------------------------------
 #SP PBE1PBE/Def2TZVP geom=connectivity
 --------------------------------------

 99/5=1,9=1/99;
 ------------
 Structure: 5
 ------------
 Charge =  0 Multiplicity = 1

                         Standard orientation:
 ---------------------------------------------------------------------
 Center     Atomic      Atomic             Coordinates (Angstroms)
 Number     Number       Type             X           Y           Z
 ---------------------------------------------------------------------
      1          1           0       -3.034999   -1.463714   -0.329970
      2          6           0       -2.086015   -0.963947   -0.540470
      3          6           0       -1.481182   -0.351522    0.722146
      4          1           0       -2.289860   -0.203788   -1.300680
      5          1           0       -1.413875   -1.702954   -0.983535
      6          1           0       -2.169421    0.380478    1.159071
      7         14           0        0.156861    0.491680    0.461283
      8          1           0       -1.334769   -1.124279    1.484300
      9          8           0       -0.494785    1.550452   -0.622199
     10          8           0        1.189363   -0.684152   -0.038143
     11          1           0        0.682591    1.139574    1.690349
     12          1           0       -0.974422    1.183375   -1.366181
     13          6           0        2.562620   -0.474055   -0.269830
     14          1           0        3.019991   -1.432795   -0.520474
     15          1           0        3.062444   -0.072894    0.620117
     16          1           0        2.727091    0.220222   -1.099300
 ---------------------------------------------------------------------

 SCF Done:  E(RPBE1PBE) =  -560.041492284     A.U. after   13 cycles

 The electronic state is 1-A.
 Alpha  occ. eigenvalues --  -66.25815 -19.21134 -19.19339 -10.27193 -10.21435
 Alpha  occ. eigenvalues --  -10.19241  -5.33459  -3.66980  -3.66913  -3.66689
 Alpha  occ. eigenvalues --   -1.05065  -1.02138  -0.77369  -0.71255  -0.63536
 Alpha  occ. eigenvalues --   -0.56305  -0.51811  -0.47577  -0.47216  -0.45819
 Alpha  occ. eigenvalues --   -0.43494  -0.41469  -0.38219  -0.37060  -0.36347
 Alpha  occ. eigenvalues --   -0.34890  -0.32653  -0.30996  -0.27865
 Alpha virt. eigenvalues --    0.01824   0.04800   0.05699   0.07780   0.09050
 Alpha virt. eigenvalues --    0.09302   0.11042   0.11677   0.11932   0.12974
 Alpha virt. eigenvalues --    0.13682   0.15070   0.16789   0.18268   0.20326

 Mulliken atomic charges:
              1
     1  H    0.129054
     2  C   -0.392277
     3  C   -0.307560
     4  H    0.084748
     5  H    0.142559
     6  H    0.116097
     7  Si   0.551854
     8  H    0.096879
     9  O   -0.520249
    10  O   -0.330800
    11  H   -0.039457
    12  H    0.315055
    13  C   -0.223545
    14  H    0.132282
    15  H    0.120302
    16  H    0.125060
 Sum of Mulliken atomic charges =   0.00000

 Dipole moment (field-independent basis, Debye):
    X=              0.8000    Y=             -0.5609    Z=             -0.5112  Tot=              1.1027
 Quadrupole moment (field-independent basis, Debye-Ang):
   XX=            -40.2186   YY=            -49.6775   ZZ=            -43.5143
   XY=              0.1542   XZ=              0.7354   YZ=              0.1787

 Normal termination of Gaussian 09 at Wed Aug  8 17:40:39 2018.
