 Gaussian 09, Revision C.01,
 Gaussian 09:  EM64L-G09RevC.01 23-Sep-2011

 --------------------------------------
 #SP PBE1PBE/Def2TZVP geom=connectivity
 --------------------------------------

 99/5=1,9=1/99;
 -------------
 Structure: 56
 -------------
 Charge =  0 Multiplicity = 1

                         Standard orientation:
 ---------------------------------------------------------------------
 Center     Atomic      Atomic             Coordinates (Angstroms)
 Number     Number       Type             X           Y           Z
 ---------------------------------------------------------------------
      1          1           0       -3.192030   -1.254408   -0.476503
      2          6           0       -2.206089   -0.811310   -0.638471
      3          6           0       -1.594910   -0.307300    0.668250
      4          1           0       -2.337651   -0.001119   -1.362070
      5          1           0       -1.574054   -1.571432   -1.104256
      6          1           0       -2.243314    0.447266    1.127167
      7         14           0        0.102882    0.432931    0.489966
      8          1           0       -1.521535   -1.126174    1.391804
      9          8           0        0.023734    1.717397   -0.540346
     10          8           0        1.066207   -0.784422   -0.046803
     11          1           0        0.638464    0.979456    1.763239
     12          1           0       -0.362755    1.568218   -1.404864
     13          6           0        2.456221   -0.658154   -0.235412
     14          1           0        2.854046   -1.632172   -0.525617
     15          1           0        2.958254   -0.338374    0.685709
     16          1           0        2.689372    0.064485   -1.023145
 ---------------------------------------------------------------------

 SCF Done:  E(RPBE1PBE) =  -560.060721207     A.U. after   12 cycles

 The electronic state is 1-A.
 Alpha  occ. eigenvalues --  -66.25431 -19.20230 -19.20175 -10.26596 -10.21655
 Alpha  occ. eigenvalues --  -10.20576  -5.33089  -3.66609  -3.66512  -3.66359
 Alpha  occ. eigenvalues --   -1.04525  -1.02327  -0.78049  -0.70660  -0.63934
 Alpha  occ. eigenvalues --   -0.56648  -0.51310  -0.46979  -0.46721  -0.45898
 Alpha  occ. eigenvalues --   -0.43555  -0.41007  -0.38949  -0.37247  -0.36553
 Alpha  occ. eigenvalues --   -0.35571  -0.32036  -0.30461  -0.29606
 Alpha virt. eigenvalues --    0.02354   0.05454   0.06009   0.08038   0.08986
 Alpha virt. eigenvalues --    0.10079   0.11052   0.11263   0.12188   0.13441
 Alpha virt. eigenvalues --    0.13795   0.15193   0.16325   0.17009   0.19407

 Mulliken atomic charges:
              1
     1  H    0.130018
     2  C   -0.394532
     3  C   -0.305446
     4  H    0.102290
     5  H    0.142278
     6  H    0.120382
     7  Si   0.542328
     8  H    0.114450
     9  O   -0.528993
    10  O   -0.337414
    11  H   -0.059805
    12  H    0.319902
    13  C   -0.214349
    14  H    0.129393
    15  H    0.118127
    16  H    0.121371
 Sum of Mulliken atomic charges =   0.00000

 Dipole moment (field-independent basis, Debye):
    X=             -0.0937    Y=             -0.5970    Z=             -0.8204  Tot=              1.0189
 Quadrupole moment (field-independent basis, Debye-Ang):
   XX=            -40.9764   YY=            -49.4368   ZZ=            -42.9182
   XY=             -1.3850   XZ=              0.0449   YZ=             -1.5009

 Normal termination of Gaussian 09 at Wed Aug  8 17:22:18 2018.
