 Gaussian 09, Revision C.01,
 Gaussian 09:  EM64L-G09RevC.01 23-Sep-2011

 --------------------------------------
 #SP PBE1PBE/Def2TZVP geom=connectivity
 --------------------------------------

 99/5=1,9=1/99;
 -------------
 Structure: 51
 -------------
 Charge =  0 Multiplicity = 1

                         Standard orientation:
 ---------------------------------------------------------------------
 Center     Atomic      Atomic             Coordinates (Angstroms)
 Number     Number       Type             X           Y           Z
 ---------------------------------------------------------------------
      1          1           0       -3.175431   -1.278682   -0.467989
      2          6           0       -2.193510   -0.827622   -0.632383
      3          6           0       -1.583192   -0.318702    0.672836
      4          1           0       -2.333412   -0.018513   -1.355628
      5          1           0       -1.556503   -1.582601   -1.099758
      6          1           0       -2.236539    0.430589    1.133382
      7         14           0        0.108110    0.435240    0.490371
      8          1           0       -1.501404   -1.136965    1.396179
      9          8           0       -0.031206    1.710974   -0.544735
     10          8           0        1.079918   -0.774275   -0.048822
     11          1           0        0.642407    0.986062    1.762331
     12          1           0       -0.429696    1.544441   -1.400528
     13          6           0        2.468393   -0.636766   -0.240870
     14          1           0        2.873363   -1.607530   -0.532092
     15          1           0        2.970104   -0.312948    0.679015
     16          1           0        2.693739    0.087745   -1.029154
 ---------------------------------------------------------------------

 SCF Done:  E(RPBE1PBE) =  -560.060090229     A.U. after   12 cycles

 The electronic state is 1-A.
 Alpha  occ. eigenvalues --  -66.25460 -19.20323 -19.20130 -10.26659 -10.21624
 Alpha  occ. eigenvalues --  -10.20451  -5.33116  -3.66635  -3.66542  -3.66384
 Alpha  occ. eigenvalues --   -1.04570  -1.02335  -0.77980  -0.70721  -0.63883
 Alpha  occ. eigenvalues --   -0.56622  -0.51366  -0.47038  -0.46767  -0.45866
 Alpha  occ. eigenvalues --   -0.43550  -0.41039  -0.38888  -0.37251  -0.36536
 Alpha  occ. eigenvalues --   -0.35520  -0.32105  -0.30493  -0.29526
 Alpha virt. eigenvalues --    0.02366   0.05401   0.05989   0.08042   0.08992
 Alpha virt. eigenvalues --    0.10014   0.11120   0.11228   0.12138   0.13407
 Alpha virt. eigenvalues --    0.13710   0.15177   0.16384   0.17219   0.19470

 Mulliken atomic charges:
              1
     1  H    0.129929
     2  C   -0.394901
     3  C   -0.305277
     4  H    0.100853
     5  H    0.142207
     6  H    0.119975
     7  Si   0.543685
     8  H    0.112938
     9  O   -0.529334
    10  O   -0.336624
    11  H   -0.058085
    12  H    0.320191
    13  C   -0.215572
    14  H    0.129673
    15  H    0.118372
    16  H    0.121969
 Sum of Mulliken atomic charges =   0.00000

 Dipole moment (field-independent basis, Debye):
    X=             -0.0085    Y=             -0.6034    Z=             -0.7884  Tot=              0.9928
 Quadrupole moment (field-independent basis, Debye-Ang):
   XX=            -40.8908   YY=            -49.5023   ZZ=            -42.9493
   XY=             -1.2574   XZ=              0.1415   YZ=             -1.3735

 Normal termination of Gaussian 09 at Wed Aug  8 17:00:04 2018.
