 Gaussian 09, Revision C.01,
 Gaussian 09:  EM64L-G09RevC.01 23-Sep-2011

 --------------------------------------
 #SP PBE1PBE/Def2TZVP geom=connectivity
 --------------------------------------

 99/5=1,9=1/99;
 -------------
 Structure: 50
 -------------
 Charge =  0 Multiplicity = 1

                         Standard orientation:
 ---------------------------------------------------------------------
 Center     Atomic      Atomic             Coordinates (Angstroms)
 Number     Number       Type             X           Y           Z
 ---------------------------------------------------------------------
      1          1           0       -3.172233   -1.283268   -0.466097
      2          6           0       -2.191087   -0.830730   -0.631053
      3          6           0       -1.580928   -0.320608    0.673771
      4          1           0       -2.332582   -0.021983   -1.354393
      5          1           0       -1.553143   -1.584822   -1.098582
      6          1           0       -2.235207    0.427769    1.134480
      7         14           0        0.109124    0.435901    0.490342
      8          1           0       -1.497532   -1.138598    1.397239
      9          8           0       -0.041749    1.708872   -0.545839
     10          8           0        1.082534   -0.772225   -0.049075
     11          1           0        0.643182    0.987801    1.761935
     12          1           0       -0.442577    1.539616   -1.399832
     13          6           0        2.470704   -0.632617   -0.241816
     14          1           0        2.877028   -1.602815   -0.533038
     15          1           0        2.972357   -0.307841    0.677762
     16          1           0        2.694556    0.092082   -1.030355
 ---------------------------------------------------------------------

 SCF Done:  E(RPBE1PBE) =  -560.059938932     A.U. after   12 cycles

 The electronic state is 1-A.
 Alpha  occ. eigenvalues --  -66.25461 -19.20337 -19.20119 -10.26669 -10.21616
 Alpha  occ. eigenvalues --  -10.20423  -5.33118  -3.66636  -3.66544  -3.66384
 Alpha  occ. eigenvalues --   -1.04579  -1.02344  -0.77964  -0.70731  -0.63872
 Alpha  occ. eigenvalues --   -0.56629  -0.51378  -0.47048  -0.46775  -0.45859
 Alpha  occ. eigenvalues --   -0.43547  -0.41045  -0.38876  -0.37251  -0.36535
 Alpha  occ. eigenvalues --   -0.35511  -0.32116  -0.30498  -0.29505
 Alpha virt. eigenvalues --    0.02370   0.05391   0.05986   0.08043   0.08993
 Alpha virt. eigenvalues --    0.10003   0.11129   0.11230   0.12130   0.13399
 Alpha virt. eigenvalues --    0.13698   0.15175   0.16396   0.17262   0.19485

 Mulliken atomic charges:
              1
     1  H    0.129908
     2  C   -0.394942
     3  C   -0.305287
     4  H    0.100534
     5  H    0.142193
     6  H    0.119870
     7  Si   0.543945
     8  H    0.112627
     9  O   -0.529232
    10  O   -0.336495
    11  H   -0.057767
    12  H    0.320255
    13  C   -0.215795
    14  H    0.129720
    15  H    0.118409
    16  H    0.122057
 Sum of Mulliken atomic charges =   0.00000

 Dipole moment (field-independent basis, Debye):
    X=              0.0078    Y=             -0.6012    Z=             -0.7832  Tot=              0.9873
 Quadrupole moment (field-independent basis, Debye-Ang):
   XX=            -40.8768   YY=            -49.5064   ZZ=            -42.9550
   XY=             -1.2331   XZ=              0.1606   YZ=             -1.3503

 Normal termination of Gaussian 09 at Wed Aug  8 16:55:30 2018.
