 Gaussian 09, Revision C.01,
 Gaussian 09:  EM64L-G09RevC.01 23-Sep-2011

 --------------------------------------
 #SP PBE1PBE/Def2TZVP geom=connectivity
 --------------------------------------

 99/5=1,9=1/99;
 -------------
 Structure: 53
 -------------
 Charge =  0 Multiplicity = 1

                         Standard orientation:
 ---------------------------------------------------------------------
 Center     Atomic      Atomic             Coordinates (Angstroms)
 Number     Number       Type             X           Y           Z
 ---------------------------------------------------------------------
      1          1           0       -3.182132   -1.268929   -0.471362
      2          6           0       -2.198588   -0.821070   -0.634797
      3          6           0       -1.587928   -0.314061    0.671006
      4          1           0       -2.335138   -0.011551   -1.358224
      5          1           0       -1.563569   -1.578140   -1.101495
      6          1           0       -2.239298    0.437373    1.130858
      7         14           0        0.105996    0.434374    0.490193
      8          1           0       -1.509520   -1.132545    1.394473
      9          8           0       -0.009068    1.713303   -0.543028
     10          8           0        1.074410   -0.778321   -0.047963
     11          1           0        0.640806    0.983529    1.762659
     12          1           0       -0.402808    1.554061   -1.402793
     13          6           0        2.463516   -0.645332   -0.238628
     14          1           0        2.865622   -1.617422   -0.529393
     15          1           0        2.965355   -0.323093    0.681741
     16          1           0        2.692003    0.078399   -1.026725
 ---------------------------------------------------------------------

 SCF Done:  E(RPBE1PBE) =  -560.060370430     A.U. after   12 cycles

 The electronic state is 1-A.
 Alpha  occ. eigenvalues --  -66.25442 -19.20282 -19.20153 -10.26632 -10.21635
 Alpha  occ. eigenvalues --  -10.20498  -5.33100  -3.66619  -3.66525  -3.66368
 Alpha  occ. eigenvalues --   -1.04551  -1.02333  -0.78006  -0.70695  -0.63902
 Alpha  occ. eigenvalues --   -0.56637  -0.51343  -0.47013  -0.46747  -0.45877
 Alpha  occ. eigenvalues --   -0.43550  -0.41023  -0.38915  -0.37249  -0.36545
 Alpha  occ. eigenvalues --   -0.35542  -0.32075  -0.30476  -0.29559
 Alpha virt. eigenvalues --    0.02360   0.05424   0.05998   0.08042   0.08988
 Alpha virt. eigenvalues --    0.10044   0.11098   0.11239   0.12159   0.13423
 Alpha virt. eigenvalues --    0.13743   0.15184   0.16363   0.17138   0.19444

 Mulliken atomic charges:
              1
     1  H    0.129964
     2  C   -0.394773
     3  C   -0.305369
     4  H    0.101415
     5  H    0.142235
     6  H    0.120120
     7  Si   0.543108
     8  H    0.113536
     9  O   -0.529110
    10  O   -0.336968
    11  H   -0.058813
    12  H    0.320202
    13  C   -0.215079
    14  H    0.129554
    15  H    0.118268
    16  H    0.121710
 Sum of Mulliken atomic charges =   0.00000

 Dipole moment (field-independent basis, Debye):
    X=             -0.0431    Y=             -0.5987    Z=             -0.8029  Tot=              1.0024
 Quadrupole moment (field-independent basis, Debye-Ang):
   XX=            -40.9280   YY=            -49.4716   ZZ=            -42.9345
   XY=             -1.3099   XZ=              0.1037   YZ=             -1.4278

 Normal termination of Gaussian 09 at Wed Aug  8 17:08:28 2018.
