 Gaussian 09, Revision C.01,
 Gaussian 09:  EM64L-G09RevC.01 23-Sep-2011

 --------------------------------------
 #SP PBE1PBE/Def2TZVP geom=connectivity
 --------------------------------------

 99/5=1,9=1/99;
 -------------
 Structure: 54
 -------------
 Charge =  0 Multiplicity = 1

                         Standard orientation:
 ---------------------------------------------------------------------
 Center     Atomic      Atomic             Coordinates (Angstroms)
 Number     Number       Type             X           Y           Z
 ---------------------------------------------------------------------
      1          1           0       -3.185362   -1.264241   -0.473259
      2          6           0       -2.201033   -0.817904   -0.636139
      3          6           0       -1.590218   -0.312066    0.670046
      4          1           0       -2.335953   -0.008055   -1.359503
      5          1           0       -1.566977   -1.575898   -1.102645
      6          1           0       -2.240632    0.440319    1.129699
      7         14           0        0.104970    0.433731    0.490188
      8          1           0       -1.513456   -1.130788    1.393420
      9          8           0        0.001537    1.715285   -0.541979
     10          8           0        1.071739   -0.780401   -0.047687
     11          1           0        0.640017    0.981840    1.763005
     12          1           0       -0.388856    1.559326   -1.402705
     13          6           0        2.461146   -0.649568   -0.237647
     14          1           0        2.861865   -1.622244   -0.528371
     15          1           0        2.963039   -0.328267    0.683021
     16          1           0        2.691160    0.073929   -1.025515
 ---------------------------------------------------------------------

 SCF Done:  E(RPBE1PBE) =  -560.060495179     A.U. after   12 cycles

 The electronic state is 1-A.
 Alpha  occ. eigenvalues --  -66.25445 -19.20270 -19.20151 -10.26623 -10.21642
 Alpha  occ. eigenvalues --  -10.20526  -5.33102  -3.66621  -3.66526  -3.66371
 Alpha  occ. eigenvalues --   -1.04547  -1.02342  -0.78021  -0.70686  -0.63914
 Alpha  occ. eigenvalues --   -0.56646  -0.51337  -0.47004  -0.46741  -0.45883
 Alpha  occ. eigenvalues --   -0.43553  -0.41019  -0.38926  -0.37249  -0.36546
 Alpha  occ. eigenvalues --   -0.35551  -0.32066  -0.30474  -0.29577
 Alpha virt. eigenvalues --    0.02367   0.05434   0.06002   0.08039   0.08991
 Alpha virt. eigenvalues --    0.10054   0.11082   0.11244   0.12168   0.13429
 Alpha virt. eigenvalues --    0.13757   0.15186   0.16351   0.17094   0.19431

 Mulliken atomic charges:
              1
     1  H    0.129978
     2  C   -0.394711
     3  C   -0.305341
     4  H    0.101773
     5  H    0.142232
     6  H    0.120221
     7  Si   0.542925
     8  H    0.113845
     9  O   -0.529083
    10  O   -0.337090
    11  H   -0.059120
    12  H    0.319861
    13  C   -0.214852
    14  H    0.129513
    15  H    0.118234
    16  H    0.121615
 Sum of Mulliken atomic charges =   0.00000

 Dipole moment (field-independent basis, Debye):
    X=             -0.0581    Y=             -0.6006    Z=             -0.8072  Tot=              1.0078
 Quadrupole moment (field-independent basis, Debye-Ang):
   XX=            -40.9416   YY=            -49.4649   ZZ=            -42.9305
   XY=             -1.3329   XZ=              0.0815   YZ=             -1.4505

 Normal termination of Gaussian 09 at Wed Aug  8 17:12:47 2018.
