 Gaussian 09, Revision C.01,
 Gaussian 09:  EM64L-G09RevC.01 23-Sep-2011

 --------------------------------------
 #SP PBE1PBE/Def2TZVP geom=connectivity
 --------------------------------------

 99/5=1,9=1/99;
 -------------
 Structure: 57
 -------------
 Charge =  0 Multiplicity = 1

                         Standard orientation:
 ---------------------------------------------------------------------
 Center     Atomic      Atomic             Coordinates (Angstroms)
 Number     Number       Type             X           Y           Z
 ---------------------------------------------------------------------
      1          1           0       -3.195408   -1.249386   -0.478130
      2          6           0       -2.208648   -0.807947   -0.639642
      3          6           0       -1.597293   -0.304823    0.667337
      4          1           0       -2.338493    0.002388   -1.363390
      5          1           0       -1.577644   -1.569168   -1.105031
      6          1           0       -2.244671    0.450869    1.125849
      7         14           0        0.101820    0.432561    0.489839
      8          1           0       -1.525648   -1.123744    1.391011
      9          8           0        0.034877    1.718394   -0.539579
     10          8           0        1.063388   -0.786450   -0.046319
     11          1           0        0.637667    0.978322    1.763328
     12          1           0       -0.348308    1.572086   -1.405993
     13          6           0        2.453705   -0.662517   -0.234236
     14          1           0        2.850054   -1.637225   -0.524141
     15          1           0        2.955804   -0.343480    0.687107
     16          1           0        2.688459    0.059653   -1.021924
 ---------------------------------------------------------------------

 SCF Done:  E(RPBE1PBE) =  -560.060820994     A.U. after   12 cycles

 The electronic state is 1-A.
 Alpha  occ. eigenvalues --  -66.25426 -19.20212 -19.20183 -10.26584 -10.21662
 Alpha  occ. eigenvalues --  -10.20601  -5.33084  -3.66605  -3.66506  -3.66354
 Alpha  occ. eigenvalues --   -1.04518  -1.02326  -0.78062  -0.70649  -0.63944
 Alpha  occ. eigenvalues --   -0.56653  -0.51300  -0.46967  -0.46713  -0.45904
 Alpha  occ. eigenvalues --   -0.43556  -0.41000  -0.38963  -0.37246  -0.36556
 Alpha  occ. eigenvalues --   -0.35581  -0.32023  -0.30456  -0.29619
 Alpha virt. eigenvalues --    0.02352   0.05464   0.06013   0.08036   0.08985
 Alpha virt. eigenvalues --    0.10091   0.11036   0.11273   0.12199   0.13447
 Alpha virt. eigenvalues --    0.13814   0.15196   0.16311   0.16966   0.19395

 Mulliken atomic charges:
              1
     1  H    0.130034
     2  C   -0.394491
     3  C   -0.305432
     4  H    0.102601
     5  H    0.142290
     6  H    0.120458
     7  Si   0.541995
     8  H    0.114747
     9  O   -0.528865
    10  O   -0.337574
    11  H   -0.060137
    12  H    0.319815
    13  C   -0.214093
    14  H    0.129340
    15  H    0.118080
    16  H    0.121232
 Sum of Mulliken atomic charges =   0.00000

 Dipole moment (field-independent basis, Debye):
    X=             -0.1095    Y=             -0.5961    Z=             -0.8269  Tot=              1.0252
 Quadrupole moment (field-independent basis, Debye-Ang):
   XX=            -40.9948   YY=            -49.4254   ZZ=            -42.9109
   XY=             -1.4077   XZ=              0.0228   YZ=             -1.5242

 Normal termination of Gaussian 09 at Wed Aug  8 17:27:19 2018.
