 Gaussian 09, Revision C.01,
 Gaussian 09:  EM64L-G09RevC.01 23-Sep-2011

 --------------------------------------
 #SP PBE1PBE/Def2TZVP geom=connectivity
 --------------------------------------

 99/5=1,9=1/99;
 -------------
 Structure: 55
 -------------
 Charge =  0 Multiplicity = 1

                         Standard orientation:
 ---------------------------------------------------------------------
 Center     Atomic      Atomic             Coordinates (Angstroms)
 Number     Number       Type             X           Y           Z
 ---------------------------------------------------------------------
      1          1           0       -3.188697   -1.259334   -0.474886
      2          6           0       -2.203561   -0.814613   -0.637307
      3          6           0       -1.592566   -0.309692    0.669147
      4          1           0       -2.336804   -0.004590   -1.360787
      5          1           0       -1.570513   -1.573669   -1.103456
      6          1           0       -2.241978    0.443781    1.128434
      7         14           0        0.103925    0.433328    0.490079
      8          1           0       -1.517495   -1.128494    1.392609
      9          8           0        0.012630    1.716359   -0.541162
     10          8           0        1.068977   -0.782412   -0.047246
     11          1           0        0.639238    0.980641    1.763126
     12          1           0       -0.375816    1.563794   -1.403785
     13          6           0        2.458689   -0.653858   -0.236529
     14          1           0        2.857964   -1.627203   -0.526997
     15          1           0        2.960651   -0.333319    0.684366
     16          1           0        2.690271    0.069215   -1.024328
 ---------------------------------------------------------------------

 SCF Done:  E(RPBE1PBE) =  -560.060612923     A.U. after   12 cycles

 The electronic state is 1-A.
 Alpha  occ. eigenvalues --  -66.25438 -19.20250 -19.20163 -10.26609 -10.21649
 Alpha  occ. eigenvalues --  -10.20551  -5.33095  -3.66615  -3.66519  -3.66364
 Alpha  occ. eigenvalues --   -1.04536  -1.02335  -0.78035  -0.70673  -0.63924
 Alpha  occ. eigenvalues --   -0.56648  -0.51323  -0.46991  -0.46731  -0.45891
 Alpha  occ. eigenvalues --   -0.43554  -0.41013  -0.38938  -0.37248  -0.36550
 Alpha  occ. eigenvalues --   -0.35561  -0.32051  -0.30467  -0.29592
 Alpha virt. eigenvalues --    0.02361   0.05444   0.06006   0.08039   0.08988
 Alpha virt. eigenvalues --    0.10067   0.11068   0.11253   0.12178   0.13436
 Alpha virt. eigenvalues --    0.13776   0.15190   0.16338   0.17052   0.19419

 Mulliken atomic charges:
              1
     1  H    0.129998
     2  C   -0.394624
     3  C   -0.305396
     4  H    0.102032
     5  H    0.142255
     6  H    0.120301
     7  Si   0.542624
     8  H    0.114147
     9  O   -0.529027
    10  O   -0.337253
    11  H   -0.059466
    12  H    0.319884
    13  C   -0.214602
    14  H    0.129453
    15  H    0.118181
    16  H    0.121493
 Sum of Mulliken atomic charges =   0.00000

 Dipole moment (field-independent basis, Debye):
    X=             -0.0759    Y=             -0.5988    Z=             -0.8138  Tot=              1.0132
 Quadrupole moment (field-independent basis, Debye-Ang):
   XX=            -40.9591   YY=            -49.4508   ZZ=            -42.9243
   XY=             -1.3591   XZ=              0.0633   YZ=             -1.4758

 Normal termination of Gaussian 09 at Wed Aug  8 17:17:47 2018.
