 Gaussian 09, Revision C.01,
 Gaussian 09:  EM64L-G09RevC.01 23-Sep-2011

 --------------------------------------
 #SP PBE1PBE/Def2TZVP geom=connectivity
 --------------------------------------

 99/5=1,9=1/99;
 -------------
 Structure: 59
 -------------
 Charge =  0 Multiplicity = 1

                         Standard orientation:
 ---------------------------------------------------------------------
 Center     Atomic      Atomic             Coordinates (Angstroms)
 Number     Number       Type             X           Y           Z
 ---------------------------------------------------------------------
      1          1           0       -3.201782   -1.239924   -0.481016
      2          6           0       -2.213481   -0.801661   -0.641753
      3          6           0       -1.601779   -0.299988    0.665623
      4          1           0       -2.340083    0.008814   -1.365919
      5          1           0       -1.584442   -1.565040   -1.106266
      6          1           0       -2.247204    0.457911    1.123245
      7         14           0        0.099819    0.431966    0.489466
      8          1           0       -1.533404   -1.118866    1.389662
      9          8           0        0.056097    1.719849   -0.538190
     10          8           0        1.058044   -0.790270   -0.045335
     11          1           0        0.636179    0.976501    1.763264
     12          1           0       -0.322153    1.580625   -1.407507
     13          6           0        2.448922   -0.670793   -0.231979
     14          1           0        2.842468   -1.646854   -0.521153
     15          1           0        2.951152   -0.353004    0.689723
     16          1           0        2.686700    0.050343   -1.019707
 ---------------------------------------------------------------------

 SCF Done:  E(RPBE1PBE) =  -560.060985288     A.U. after   12 cycles

 The electronic state is 1-A.
 Alpha  occ. eigenvalues --  -66.25414 -19.20194 -19.20174 -10.26559 -10.21673
 Alpha  occ. eigenvalues --  -10.20647  -5.33073  -3.66595  -3.66494  -3.66344
 Alpha  occ. eigenvalues --   -1.04503  -1.02329  -0.78087  -0.70624  -0.63963
 Alpha  occ. eigenvalues --   -0.56674  -0.51280  -0.46944  -0.46694  -0.45916
 Alpha  occ. eigenvalues --   -0.43556  -0.40989  -0.38983  -0.37244  -0.36563
 Alpha  occ. eigenvalues --   -0.35600  -0.31996  -0.30447  -0.29639
 Alpha virt. eigenvalues --    0.02348   0.05483   0.06020   0.08034   0.08984
 Alpha virt. eigenvalues --    0.10112   0.11006   0.11297   0.12219   0.13458
 Alpha virt. eigenvalues --    0.13855   0.15204   0.16284   0.16886   0.19375

 Mulliken atomic charges:
              1
     1  H    0.130063
     2  C   -0.394292
     3  C   -0.305521
     4  H    0.103114
     5  H    0.142317
     6  H    0.120595
     7  Si   0.541491
     8  H    0.115311
     9  O   -0.528584
    10  O   -0.337887
    11  H   -0.060795
    12  H    0.319606
    13  C   -0.213600
    14  H    0.129231
    15  H    0.117980
    16  H    0.120971
 Sum of Mulliken atomic charges =   0.00000

 Dipole moment (field-independent basis, Debye):
    X=             -0.1417    Y=             -0.5910    Z=             -0.8395  Tot=              1.0364
 Quadrupole moment (field-independent basis, Debye-Ang):
   XX=            -41.0289   YY=            -49.3932   ZZ=            -42.9004
   XY=             -1.4550   XZ=             -0.0158   YZ=             -1.5722

 Normal termination of Gaussian 09 at Wed Aug  8 17:35:54 2018.
