 Gaussian 09, Revision C.01,
 Gaussian 09:  EM64L-G09RevC.01 23-Sep-2011

 --------------------------------------
 #SP PBE1PBE/Def2TZVP geom=connectivity
 --------------------------------------

 99/5=1,9=1/99;
 -------------
 Structure: 58
 -------------
 Charge =  0 Multiplicity = 1

                         Standard orientation:
 ---------------------------------------------------------------------
 Center     Atomic      Atomic             Coordinates (Angstroms)
 Number     Number       Type             X           Y           Z
 ---------------------------------------------------------------------
      1          1           0       -3.198737   -1.244445   -0.479696
      2          6           0       -2.211172   -0.804653   -0.640779
      3          6           0       -1.599635   -0.302363    0.666436
      4          1           0       -2.339327    0.005800   -1.364697
      5          1           0       -1.581193   -1.566972   -1.105757
      6          1           0       -2.245994    0.454453    1.124529
      7         14           0        0.100777    0.432200    0.489679
      8          1           0       -1.529694   -1.121306    1.390252
      9          8           0        0.046003    1.719332   -0.538871
     10          8           0        1.060602   -0.788463   -0.045845
     11          1           0        0.636893    0.977246    1.763361
     12          1           0       -0.335129    1.576537   -1.406189
     13          6           0        2.451214   -0.666843   -0.233092
     14          1           0        2.846101   -1.642240   -0.522674
     15          1           0        2.953382   -0.348511    0.688457
     16          1           0        2.687544    0.054836   -1.020758
 ---------------------------------------------------------------------

 SCF Done:  E(RPBE1PBE) =  -560.060911899     A.U. after   12 cycles

 The electronic state is 1-A.
 Alpha  occ. eigenvalues --  -66.25422 -19.20193 -19.20186 -10.26571 -10.21669
 Alpha  occ. eigenvalues --  -10.20627  -5.33080  -3.66601  -3.66502  -3.66350
 Alpha  occ. eigenvalues --   -1.04511  -1.02332  -0.78077  -0.70636  -0.63956
 Alpha  occ. eigenvalues --   -0.56664  -0.51290  -0.46956  -0.46703  -0.45912
 Alpha  occ. eigenvalues --   -0.43557  -0.40996  -0.38975  -0.37246  -0.36560
 Alpha  occ. eigenvalues --   -0.35591  -0.32009  -0.30452  -0.29632
 Alpha virt. eigenvalues --    0.02352   0.05474   0.06016   0.08034   0.08986
 Alpha virt. eigenvalues --    0.10102   0.11019   0.11285   0.12209   0.13453
 Alpha virt. eigenvalues --    0.13834   0.15200   0.16297   0.16924   0.19384

 Mulliken atomic charges:
              1
     1  H    0.130054
     2  C   -0.394373
     3  C   -0.305505
     4  H    0.102873
     5  H    0.142313
     6  H    0.120545
     7  Si   0.541712
     8  H    0.115055
     9  O   -0.528669
    10  O   -0.337728
    11  H   -0.060476
    12  H    0.319611
    13  C   -0.213841
    14  H    0.129283
    15  H    0.118027
    16  H    0.121118
 Sum of Mulliken atomic charges =   0.00000

 Dipole moment (field-independent basis, Debye):
    X=             -0.1273    Y=             -0.5947    Z=             -0.8320  Tot=              1.0306
 Quadrupole moment (field-independent basis, Debye-Ang):
   XX=            -41.0101   YY=            -49.4105   ZZ=            -42.9082
   XY=             -1.4335   XZ=              0.0037   YZ=             -1.5468

 Normal termination of Gaussian 09 at Wed Aug  8 17:31:27 2018.
