 Gaussian 09, Revision C.01,
 Gaussian 09:  EM64L-G09RevC.01 23-Sep-2011

 --------------------------------------
 #SP PBE1PBE/Def2TZVP geom=connectivity
 --------------------------------------

 99/5=1,9=1/99;
 -------------
 Structure: 52
 -------------
 Charge =  0 Multiplicity = 1

                         Standard orientation:
 ---------------------------------------------------------------------
 Center     Atomic      Atomic             Coordinates (Angstroms)
 Number     Number       Type             X           Y           Z
 ---------------------------------------------------------------------
      1          1           0       -3.178796   -1.273791   -0.469716
      2          6           0       -2.196059   -0.824331   -0.633616
      3          6           0       -1.585575   -0.316395    0.671908
      4          1           0       -2.334279   -0.015001   -1.356938
      5          1           0       -1.560046   -1.580350   -1.100664
      6          1           0       -2.237934    0.433962    1.132118
      7         14           0        0.107045    0.434791    0.490293
      8          1           0       -1.505484   -1.134784    1.395298
      9          8           0       -0.020136    1.712161   -0.543851
     10          8           0        1.077155   -0.776309   -0.048400
     11          1           0        0.641594    0.984753    1.762520
     12          1           0       -0.415803    1.549501   -1.401712
     13          6           0        2.465949   -0.641061   -0.239745
     14          1           0        2.869486   -1.612486   -0.530755
     15          1           0        2.967721   -0.318053    0.680391
     16          1           0        2.692874    0.083076   -1.027921
 ---------------------------------------------------------------------

 SCF Done:  E(RPBE1PBE) =  -560.060234923     A.U. after   12 cycles

 The electronic state is 1-A.
 Alpha  occ. eigenvalues --  -66.25451 -19.20303 -19.20140 -10.26646 -10.21629
 Alpha  occ. eigenvalues --  -10.20474  -5.33108  -3.66627  -3.66533  -3.66376
 Alpha  occ. eigenvalues --   -1.04561  -1.02337  -0.77992  -0.70708  -0.63892
 Alpha  occ. eigenvalues --   -0.56633  -0.51356  -0.47025  -0.46757  -0.45870
 Alpha  occ. eigenvalues --   -0.43549  -0.41031  -0.38901  -0.37250  -0.36541
 Alpha  occ. eigenvalues --   -0.35531  -0.32090  -0.30485  -0.29542
 Alpha virt. eigenvalues --    0.02365   0.05413   0.05994   0.08042   0.08990
 Alpha virt. eigenvalues --    0.10030   0.11110   0.11232   0.12149   0.13415
 Alpha virt. eigenvalues --    0.13726   0.15180   0.16374   0.17179   0.19457

 Mulliken atomic charges:
              1
     1  H    0.129943
     2  C   -0.394849
     3  C   -0.305303
     4  H    0.101150
     5  H    0.142212
     6  H    0.120042
     7  Si   0.543422
     8  H    0.113233
     9  O   -0.529216
    10  O   -0.336798
    11  H   -0.058452
    12  H    0.320173
    13  C   -0.215325
    14  H    0.129615
    15  H    0.118321
    16  H    0.121832
 Sum of Mulliken atomic charges =   0.00000

 Dipole moment (field-independent basis, Debye):
    X=             -0.0252    Y=             -0.6007    Z=             -0.7960  Tot=              0.9975
 Quadrupole moment (field-independent basis, Debye-Ang):
   XX=            -40.9104   YY=            -49.4860   ZZ=            -42.9409
   XY=             -1.2833   XZ=              0.1217   YZ=             -1.4019

 Normal termination of Gaussian 09 at Wed Aug  8 17:04:11 2018.
