 Gaussian 09, Revision C.01,
 Gaussian 09:  EM64L-G09RevC.01 23-Sep-2011

 --------------------------------------
 #SP PBE1PBE/Def2TZVP geom=connectivity
 --------------------------------------

 99/5=1,9=1/99;
 -------------
 Structure: 62
 -------------
 Charge =  0 Multiplicity = 1

                         Standard orientation:
 ---------------------------------------------------------------------
 Center     Atomic      Atomic             Coordinates (Angstroms)
 Number     Number       Type             X           Y           Z
 ---------------------------------------------------------------------
      1          1           0       -3.211835   -1.225018   -0.485194
      2          6           0       -2.221109   -0.791873   -0.644869
      3          6           0       -1.608830   -0.292061    0.662949
      4          1           0       -2.342566    0.018553   -1.369970
      5          1           0       -1.595225   -1.558833   -1.107742
      6          1           0       -2.251117    0.469495    1.118913
      7         14           0        0.096682    0.431175    0.488644
      8          1           0       -1.545641   -1.110597    1.387846
      9          8           0        0.089675    1.722294   -0.536031
     10          8           0        1.049546   -0.796354   -0.043605
     11          1           0        0.633885    0.974196    1.762733
     12          1           0       -0.280800    1.591130   -1.410767
     13          6           0        2.441282   -0.684037   -0.228294
     14          1           0        2.830347   -1.662330   -0.515983
     15          1           0        2.943737   -0.367915    0.693859
     16          1           0        2.683844    0.035162   -1.016334
 ---------------------------------------------------------------------

 SCF Done:  E(RPBE1PBE) =  -560.061178658     A.U. after   12 cycles

 The electronic state is 1-A.
 Alpha  occ. eigenvalues --  -66.25400 -19.20224 -19.20121 -10.26522 -10.21695
 Alpha  occ. eigenvalues --  -10.20724  -5.33060  -3.66582  -3.66479  -3.66331
 Alpha  occ. eigenvalues --   -1.04476  -1.02305  -0.78131  -0.70589  -0.63995
 Alpha  occ. eigenvalues --   -0.56669  -0.51243  -0.46910  -0.46669  -0.45940
 Alpha  occ. eigenvalues --   -0.43561  -0.40971  -0.39021  -0.37238  -0.36572
 Alpha  occ. eigenvalues --   -0.35625  -0.31956  -0.30442  -0.29666
 Alpha virt. eigenvalues --    0.02325   0.05508   0.06028   0.08028   0.08978
 Alpha virt. eigenvalues --    0.10137   0.10953   0.11334   0.12248   0.13471
 Alpha virt. eigenvalues --    0.13920   0.15214   0.16230   0.16756   0.19344

 Mulliken atomic charges:
              1
     1  H    0.130124
     2  C   -0.394042
     3  C   -0.305584
     4  H    0.103928
     5  H    0.142383
     6  H    0.120850
     7  Si   0.540436
     8  H    0.116214
     9  O   -0.528268
    10  O   -0.338353
    11  H   -0.061799
    12  H    0.319442
    13  C   -0.212811
    14  H    0.129069
    15  H    0.117843
    16  H    0.120568
 Sum of Mulliken atomic charges =   0.00000

 Dipole moment (field-independent basis, Debye):
    X=             -0.1919    Y=             -0.5889    Z=             -0.8590  Tot=              1.0590
 Quadrupole moment (field-independent basis, Debye-Ang):
   XX=            -41.0798   YY=            -49.3601   ZZ=            -42.8844
   XY=             -1.5256   XZ=             -0.0786   YZ=             -1.6383

 Normal termination of Gaussian 09 at Wed Aug  8 17:53:56 2018.
