 Gaussian 09, Revision C.01,
 Gaussian 09:  EM64L-G09RevC.01 23-Sep-2011

 --------------------------------------
 #SP PBE1PBE/Def2TZVP geom=connectivity
 --------------------------------------

 99/5=1,9=1/99;
 -------------
 Structure: 68
 -------------
 Charge =  0 Multiplicity = 1

                         Standard orientation:
 ---------------------------------------------------------------------
 Center     Atomic      Atomic             Coordinates (Angstroms)
 Number     Number       Type             X           Y           Z
 ---------------------------------------------------------------------
      1          1           0       -3.231493   -1.195170   -0.492756
      2          6           0       -2.236045   -0.772296   -0.650583
      3          6           0       -1.622603   -0.275418    0.657808
      4          1           0       -2.347328    0.037530   -1.377984
      5          1           0       -1.616494   -1.546573   -1.109782
      6          1           0       -2.258589    0.493600    1.110062
      7         14           0        0.090524    0.430382    0.486736
      8          1           0       -1.569665   -1.092775    1.384853
      9          8           0        0.155762    1.723664   -0.532827
     10          8           0        1.032650   -0.807863   -0.039777
     11          1           0        0.629421    0.971131    1.761075
     12          1           0       -0.197309    1.610092   -1.415795
     13          6           0        2.425964   -0.709852   -0.220676
     14          1           0        2.806098   -1.692666   -0.504873
     15          1           0        2.928874   -0.396501    0.702174
     16          1           0        2.677954    0.004976   -1.009734
 ---------------------------------------------------------------------

 SCF Done:  E(RPBE1PBE) =  -560.061316791     A.U. after   12 cycles

 The electronic state is 1-A.
 Alpha  occ. eigenvalues --  -66.25375 -19.20247 -19.20009 -10.26446 -10.21734
 Alpha  occ. eigenvalues --  -10.20869  -5.33037  -3.66563  -3.66453  -3.66308
 Alpha  occ. eigenvalues --   -1.04438  -1.02297  -0.78212  -0.70517  -0.64058
 Alpha  occ. eigenvalues --   -0.56714  -0.51180  -0.46842  -0.46619  -0.45983
 Alpha  occ. eigenvalues --   -0.43564  -0.40944  -0.39083  -0.37228  -0.36591
 Alpha  occ. eigenvalues --   -0.35670  -0.31879  -0.30443  -0.29686
 Alpha virt. eigenvalues --    0.02300   0.05552   0.06044   0.08016   0.08975
 Alpha virt. eigenvalues --    0.10178   0.10853   0.11420   0.12310   0.13497
 Alpha virt. eigenvalues --    0.14061   0.15240   0.16083   0.16546   0.19294

 Mulliken atomic charges:
              1
     1  H    0.130220
     2  C   -0.393470
     3  C   -0.305766
     4  H    0.105471
     5  H    0.142499
     6  H    0.121279
     7  Si   0.538718
     8  H    0.117935
     9  O   -0.527182
    10  O   -0.339299
    11  H   -0.063704
    12  H    0.318539
    13  C   -0.211204
    14  H    0.128743
    15  H    0.117544
    16  H    0.119677
 Sum of Mulliken atomic charges =   0.00000

 Dipole moment (field-independent basis, Debye):
    X=             -0.2876    Y=             -0.5760    Z=             -0.8955  Tot=              1.1029
 Quadrupole moment (field-independent basis, Debye-Ang):
   XX=            -41.1824   YY=            -49.2720   ZZ=            -42.8573
   XY=             -1.6559   XZ=             -0.2076   YZ=             -1.7622

 Normal termination of Gaussian 09 at Wed Aug  8 18:20:20 2018.
