 Gaussian 09, Revision C.01,
 Gaussian 09:  EM64L-G09RevC.01 23-Sep-2011

 --------------------------------------
 #SP PBE1PBE/Def2TZVP geom=connectivity
 --------------------------------------

 99/5=1,9=1/99;
 -------------
 Structure: 65
 -------------
 Charge =  0 Multiplicity = 1

                         Standard orientation:
 ---------------------------------------------------------------------
 Center     Atomic      Atomic             Coordinates (Angstroms)
 Number     Number       Type             X           Y           Z
 ---------------------------------------------------------------------
      1          1           0       -3.221664   -1.210048   -0.489268
      2          6           0       -2.228572   -0.781964   -0.647890
      3          6           0       -1.615728   -0.283994    0.660366
      4          1           0       -2.344956    0.028390   -1.373904
      5          1           0       -1.605825   -1.552439   -1.109152
      6          1           0       -2.254894    0.481153    1.114699
      7         14           0        0.093600    0.430623    0.487892
      8          1           0       -1.557651   -1.102169    1.386097
      9          8           0        0.122653    1.723187   -0.534374
     10          8           0        1.041141   -0.802100   -0.041849
     11          1           0        0.631633    0.972142    1.762270
     12          1           0       -0.239329    1.601666   -1.412853
     13          6           0        2.433684   -0.696849   -0.224609
     14          1           0        2.818315   -1.677321   -0.510839
     15          1           0        2.936358   -0.382376    0.697989
     16          1           0        2.680954    0.020417   -1.012947
 ---------------------------------------------------------------------

 SCF Done:  E(RPBE1PBE) =  -560.061287142     A.U. after   12 cycles

 The electronic state is 1-A.
 Alpha  occ. eigenvalues --  -66.25388 -19.20231 -19.20063 -10.26483 -10.21714
 Alpha  occ. eigenvalues --  -10.20797  -5.33049  -3.66573  -3.66466  -3.66320
 Alpha  occ. eigenvalues --   -1.04458  -1.02309  -0.78171  -0.70552  -0.64027
 Alpha  occ. eigenvalues --   -0.56701  -0.51213  -0.46875  -0.46643  -0.45961
 Alpha  occ. eigenvalues --   -0.43562  -0.40959  -0.39051  -0.37234  -0.36581
 Alpha  occ. eigenvalues --   -0.35649  -0.31916  -0.30439  -0.29681
 Alpha virt. eigenvalues --    0.02319   0.05531   0.06037   0.08022   0.08978
 Alpha virt. eigenvalues --    0.10161   0.10904   0.11376   0.12280   0.13485
 Alpha virt. eigenvalues --    0.13989   0.15228   0.16166   0.16645   0.19318

 Mulliken atomic charges:
              1
     1  H    0.130170
     2  C   -0.393737
     3  C   -0.305683
     4  H    0.104708
     5  H    0.142437
     6  H    0.121059
     7  Si   0.539632
     8  H    0.117076
     9  O   -0.527733
    10  O   -0.338824
    11  H   -0.062742
    12  H    0.318929
    13  C   -0.212017
    14  H    0.128902
    15  H    0.117685
    16  H    0.120137
 Sum of Mulliken atomic charges =   0.00000

 Dipole moment (field-independent basis, Debye):
    X=             -0.2403    Y=             -0.5815    Z=             -0.8764  Tot=              1.0789
 Quadrupole moment (field-independent basis, Debye-Ang):
   XX=            -41.1312   YY=            -49.3124   ZZ=            -42.8710
   XY=             -1.5923   XZ=             -0.1419   YZ=             -1.7022

 Normal termination of Gaussian 09 at Wed Aug  8 18:06:54 2018.
