 Gaussian 09, Revision C.01,
 Gaussian 09:  EM64L-G09RevC.01 23-Sep-2011

 --------------------------------------
 #SP PBE1PBE/Def2TZVP geom=connectivity
 --------------------------------------

 99/5=1,9=1/99;
 -------------
 Structure: 60
 -------------
 Charge =  0 Multiplicity = 1

                         Standard orientation:
 ---------------------------------------------------------------------
 Center     Atomic      Atomic             Coordinates (Angstroms)
 Number     Number       Type             X           Y           Z
 ---------------------------------------------------------------------
      1          1           0       -3.205151   -1.234847   -0.482617
      2          6           0       -2.216036   -0.798263   -0.642909
      3          6           0       -1.604151   -0.297459    0.664714
      4          1           0       -2.340912    0.012336   -1.367236
      5          1           0       -1.588045   -1.562753   -1.107013
      6          1           0       -2.248533    0.461578    1.121920
      7         14           0        0.098762    0.431616    0.489327
      8          1           0       -1.537515   -1.116362    1.388886
      9          8           0        0.067268    1.720742   -0.537429
     10          8           0        1.055203   -0.792291   -0.044844
     11          1           0        0.635394    0.975405    1.763329
     12          1           0       -0.307650    1.584348   -1.408632
     13          6           0        2.446374   -0.675172   -0.230802
     14          1           0        2.838426   -1.651927   -0.519660
     15          1           0        2.948673   -0.358114    0.691115
     16          1           0        2.685758    0.045468   -1.018497
 ---------------------------------------------------------------------

 SCF Done:  E(RPBE1PBE) =  -560.061058547     A.U. after   12 cycles

 The electronic state is 1-A.
 Alpha  occ. eigenvalues --  -66.25411 -19.20201 -19.20156 -10.26547 -10.21679
 Alpha  occ. eigenvalues --  -10.20673  -5.33070  -3.66592  -3.66491  -3.66341
 Alpha  occ. eigenvalues --   -1.04495  -1.02323  -0.78101  -0.70613  -0.63974
 Alpha  occ. eigenvalues --   -0.56676  -0.51269  -0.46933  -0.46686  -0.45923
 Alpha  occ. eigenvalues --   -0.43557  -0.40984  -0.38994  -0.37243  -0.36565
 Alpha  occ. eigenvalues --   -0.35608  -0.31983  -0.30444  -0.29649
 Alpha virt. eigenvalues --    0.02344   0.05491   0.06023   0.08031   0.08982
 Alpha virt. eigenvalues --    0.10122   0.10989   0.11308   0.12230   0.13463
 Alpha virt. eigenvalues --    0.13875   0.15207   0.16267   0.16842   0.19364

 Mulliken atomic charges:
              1
     1  H    0.130079
     2  C   -0.394234
     3  C   -0.305495
     4  H    0.103417
     5  H    0.142330
     6  H    0.120673
     7  Si   0.541188
     8  H    0.115607
     9  O   -0.528536
    10  O   -0.338039
    11  H   -0.061106
    12  H    0.319510
    13  C   -0.213339
    14  H    0.129179
    15  H    0.117933
    16  H    0.120832
 Sum of Mulliken atomic charges =   0.00000

 Dipole moment (field-independent basis, Debye):
    X=             -0.1574    Y=             -0.5904    Z=             -0.8456  Tot=              1.0433
 Quadrupole moment (field-independent basis, Debye-Ang):
   XX=            -41.0468   YY=            -49.3823   ZZ=            -42.8934
   XY=             -1.4771   XZ=             -0.0382   YZ=             -1.5946

 Normal termination of Gaussian 09 at Wed Aug  8 17:44:45 2018.
