 Gaussian 09, Revision C.01,
 Gaussian 09:  EM64L-G09RevC.01 23-Sep-2011

 --------------------------------------
 #SP PBE1PBE/Def2TZVP geom=connectivity
 --------------------------------------

 99/5=1,9=1/99;
 -------------
 Structure: 61
 -------------
 Charge =  0 Multiplicity = 1

                         Standard orientation:
 ---------------------------------------------------------------------
 Center     Atomic      Atomic             Coordinates (Angstroms)
 Number     Number       Type             X           Y           Z
 ---------------------------------------------------------------------
      1          1           0       -3.208490   -1.229831   -0.484106
      2          6           0       -2.218568   -0.794932   -0.643999
      3          6           0       -1.606496   -0.294877    0.663823
      4          1           0       -2.341732    0.015722   -1.368556
      5          1           0       -1.591624   -1.560567   -1.107632
      6          1           0       -2.249836    0.465330    1.120551
      7         14           0        0.097719    0.431318    0.489128
      8          1           0       -1.541586   -1.113740    1.388199
      9          8           0        0.078434    1.721561   -0.536830
     10          8           0        1.052379   -0.794295   -0.044314
     11          1           0        0.634627    0.974477    1.763283
     12          1           0       -0.293981    1.587701   -1.408776
     13          6           0        2.443836   -0.679537   -0.229607
     14          1           0        2.834400   -1.657005   -0.518068
     15          1           0        2.946207   -0.363125    0.692493
     16          1           0        2.684813    0.040538   -1.017333
 ---------------------------------------------------------------------

 SCF Done:  E(RPBE1PBE) =  -560.061122757     A.U. after   12 cycles

 The electronic state is 1-A.
 Alpha  occ. eigenvalues --  -66.25409 -19.20203 -19.20140 -10.26535 -10.21688
 Alpha  occ. eigenvalues --  -10.20700  -5.33068  -3.66590  -3.66488  -3.66339
 Alpha  occ. eigenvalues --   -1.04490  -1.02330  -0.78117  -0.70602  -0.63986
 Alpha  occ. eigenvalues --   -0.56683  -0.51260  -0.46922  -0.46678  -0.45932
 Alpha  occ. eigenvalues --   -0.43560  -0.40980  -0.39009  -0.37242  -0.36569
 Alpha  occ. eigenvalues --   -0.35617  -0.31971  -0.30444  -0.29660
 Alpha virt. eigenvalues --    0.02344   0.05500   0.06026   0.08029   0.08983
 Alpha virt. eigenvalues --    0.10130   0.10970   0.11320   0.12239   0.13467
 Alpha virt. eigenvalues --    0.13895   0.15211   0.16250   0.16801   0.19354

 Mulliken atomic charges:
              1
     1  H    0.130102
     2  C   -0.394146
     3  C   -0.305534
     4  H    0.103708
     5  H    0.142357
     6  H    0.120768
     7  Si   0.540827
     8  H    0.115918
     9  O   -0.528276
    10  O   -0.338185
    11  H   -0.061425
    12  H    0.319242
    13  C   -0.213083
    14  H    0.129126
    15  H    0.117885
    16  H    0.120716
 Sum of Mulliken atomic charges =   0.00000

 Dipole moment (field-independent basis, Debye):
    X=             -0.1745    Y=             -0.5906    Z=             -0.8500  Tot=              1.0497
 Quadrupole moment (field-independent basis, Debye-Ang):
   XX=            -41.0612   YY=            -49.3722   ZZ=            -42.8916
   XY=             -1.5005   XZ=             -0.0591   YZ=             -1.6127

 Normal termination of Gaussian 09 at Wed Aug  8 17:49:33 2018.
