 Gaussian 09, Revision C.01,
 Gaussian 09:  EM64L-G09RevC.01 23-Sep-2011

 --------------------------------------
 #SP PBE1PBE/Def2TZVP geom=connectivity
 --------------------------------------

 99/5=1,9=1/99;
 -------------
 Structure: 64
 -------------
 Charge =  0 Multiplicity = 1

                         Standard orientation:
 ---------------------------------------------------------------------
 Center     Atomic      Atomic             Coordinates (Angstroms)
 Number     Number       Type             X           Y           Z
 ---------------------------------------------------------------------
      1          1           0       -3.218241   -1.215296   -0.487970
      2          6           0       -2.225969   -0.785432   -0.646915
      3          6           0       -1.613332   -0.286931    0.661235
      4          1           0       -2.344116    0.025010   -1.372544
      5          1           0       -1.602123   -1.554646   -1.108798
      6          1           0       -2.253593    0.476928    1.116195
      7         14           0        0.094672    0.430707    0.488197
      8          1           0       -1.553480   -1.105296    1.386608
      9          8           0        0.111015    1.723394   -0.534806
     10          8           0        1.044076   -0.800164   -0.042514
     11          1           0        0.632405    0.972642    1.762524
     12          1           0       -0.252680    1.597726   -1.412270
     13          6           0        2.436344   -0.692435   -0.225926
     14          1           0        2.822524   -1.672125   -0.512744
     15          1           0        2.938935   -0.377465    0.696547
     16          1           0        2.681981    0.025574   -1.014098
 ---------------------------------------------------------------------

 SCF Done:  E(RPBE1PBE) =  -560.061258368     A.U. after   12 cycles

 The electronic state is 1-A.
 Alpha  occ. eigenvalues --  -66.25396 -19.20228 -19.20088 -10.26499 -10.21707
 Alpha  occ. eigenvalues --  -10.20772  -5.33056  -3.66579  -3.66474  -3.66327
 Alpha  occ. eigenvalues --   -1.04466  -1.02307  -0.78157  -0.70568  -0.64016
 Alpha  occ. eigenvalues --   -0.56684  -0.51225  -0.46889  -0.46655  -0.45952
 Alpha  occ. eigenvalues --   -0.43563  -0.40963  -0.39041  -0.37235  -0.36577
 Alpha  occ. eigenvalues --   -0.35640  -0.31933  -0.30442  -0.29678
 Alpha virt. eigenvalues --    0.02323   0.05522   0.06033   0.08023   0.08978
 Alpha virt. eigenvalues --    0.10152   0.10920   0.11359   0.12269   0.13480
 Alpha virt. eigenvalues --    0.13962   0.15221   0.16190   0.16679   0.19326

 Mulliken atomic charges:
              1
     1  H    0.130152
     2  C   -0.393897
     3  C   -0.305561
     4  H    0.104496
     5  H    0.142404
     6  H    0.120994
     7  Si   0.539903
     8  H    0.116774
     9  O   -0.527994
    10  O   -0.338644
    11  H   -0.062391
    12  H    0.319052
    13  C   -0.212302
    14  H    0.128972
    15  H    0.117755
    16  H    0.120286
 Sum of Mulliken atomic charges =   0.00000

 Dipole moment (field-independent basis, Debye):
    X=             -0.2211    Y=             -0.5869    Z=             -0.8702  Tot=              1.0726
 Quadrupole moment (field-independent basis, Debye-Ang):
   XX=            -41.1127   YY=            -49.3366   ZZ=            -42.8740
   XY=             -1.5661   XZ=             -0.1232   YZ=             -1.6784

 Normal termination of Gaussian 09 at Wed Aug  8 18:02:46 2018.
