 Gaussian 09, Revision C.01,
 Gaussian 09:  EM64L-G09RevC.01 23-Sep-2011

 --------------------------------------
 #SP PBE1PBE/Def2TZVP geom=connectivity
 --------------------------------------

 99/5=1,9=1/99;
 -------------
 Structure: 69
 -------------
 Charge =  0 Multiplicity = 1

                         Standard orientation:
 ---------------------------------------------------------------------
 Center     Atomic      Atomic             Coordinates (Angstroms)
 Number     Number       Type             X           Y           Z
 ---------------------------------------------------------------------
      1          1           0       -3.234827   -1.190232   -0.493749
      2          6           0       -2.238583   -0.769167   -0.651394
      3          6           0       -1.624916   -0.272433    0.656945
      4          1           0       -2.348139    0.040344   -1.379407
      5          1           0       -1.620138   -1.544817   -1.109764
      6          1           0       -2.259802    0.497983    1.108366
      7         14           0        0.089495    0.430324    0.486201
      8          1           0       -1.573718   -1.089375    1.384580
      9          8           0        0.167058    1.724142   -0.532132
     10          8           0        1.029756   -0.809890   -0.039008
     11          1           0        0.628710    0.971034    1.760423
     12          1           0       -0.183601    1.612225   -1.417730
     13          6           0        2.423321   -0.714382   -0.219313
     14          1           0        2.801911   -1.698040   -0.502650
     15          1           0        2.926327   -0.401252    0.703560
     16          1           0        2.676906   -0.000532   -1.008744
 ---------------------------------------------------------------------

 SCF Done:  E(RPBE1PBE) =  -560.061308886     A.U. after   12 cycles

 The electronic state is 1-A.
 Alpha  occ. eigenvalues --  -66.25372 -19.20265 -19.19993 -10.26434 -10.21742
 Alpha  occ. eigenvalues --  -10.20895  -5.33033  -3.66559  -3.66449  -3.66304
 Alpha  occ. eigenvalues --   -1.04424  -1.02268  -0.78226  -0.70506  -0.64069
 Alpha  occ. eigenvalues --   -0.56690  -0.51163  -0.46831  -0.46612  -0.45991
 Alpha  occ. eigenvalues --   -0.43566  -0.40938  -0.39094  -0.37223  -0.36593
 Alpha  occ. eigenvalues --   -0.35674  -0.31866  -0.30447  -0.29686
 Alpha virt. eigenvalues --    0.02279   0.05557   0.06043   0.08013   0.08969
 Alpha virt. eigenvalues --    0.10181   0.10834   0.11434   0.12319   0.13499
 Alpha virt. eigenvalues --    0.14087   0.15243   0.16045   0.16512   0.19285

 Mulliken atomic charges:
              1
     1  H    0.130244
     2  C   -0.393396
     3  C   -0.305771
     4  H    0.105707
     5  H    0.142531
     6  H    0.121371
     7  Si   0.538320
     8  H    0.118233
     9  O   -0.527223
    10  O   -0.339448
    11  H   -0.064027
    12  H    0.318656
    13  C   -0.210924
    14  H    0.128691
    15  H    0.117508
    16  H    0.119528
 Sum of Mulliken atomic charges =   0.00000

 Dipole moment (field-independent basis, Debye):
    X=             -0.3041    Y=             -0.5763    Z=             -0.9032  Tot=              1.1137
 Quadrupole moment (field-independent basis, Debye-Ang):
   XX=            -41.1992   YY=            -49.2661   ZZ=            -42.8512
   XY=             -1.6782   XZ=             -0.2292   YZ=             -1.7819

 Normal termination of Gaussian 09 at Wed Aug  8 18:23:58 2018.
