 Gaussian 09, Revision C.01,
 Gaussian 09:  EM64L-G09RevC.01 23-Sep-2011

 --------------------------------------
 #SP PBE1PBE/Def2TZVP geom=connectivity
 --------------------------------------

 99/5=1,9=1/99;
 ------------
 Structure: 6
 ------------
 Charge =  0 Multiplicity = 1

                         Standard orientation:
 ---------------------------------------------------------------------
 Center     Atomic      Atomic             Coordinates (Angstroms)
 Number     Number       Type             X           Y           Z
 ---------------------------------------------------------------------
      1          1           0       -3.037631   -1.460733   -0.333666
      2          6           0       -2.088063   -0.961543   -0.542899
      3          6           0       -1.483166   -0.351894    0.721029
      4          1           0       -2.290831   -0.199873   -1.301884
      5          1           0       -1.416464   -1.700450   -0.986950
      6          1           0       -2.170869    0.380033    1.158922
      7         14           0        0.155821    0.490136    0.462320
      8          1           0       -1.337844   -1.126108    1.481913
      9          8           0       -0.485924    1.554923   -0.620193
     10          8           0        1.187374   -0.685854   -0.038693
     11          1           0        0.681664    1.135391    1.692725
     12          1           0       -0.964058    1.192434   -1.366908
     13          6           0        2.560937   -0.476716   -0.269431
     14          1           0        3.017468   -1.435475   -0.521532
     15          1           0        3.060776   -0.077584    0.621420
     16          1           0        2.726450    0.218826   -1.097632
 ---------------------------------------------------------------------

 SCF Done:  E(RPBE1PBE) =  -560.042158264     A.U. after   13 cycles

 The electronic state is 1-A.
 Alpha  occ. eigenvalues --  -66.25798 -19.21116 -19.19365 -10.27182 -10.21436
 Alpha  occ. eigenvalues --  -10.19263  -5.33445  -3.66966  -3.66898  -3.66675
 Alpha  occ. eigenvalues --   -1.05054  -1.02169  -0.77379  -0.71243  -0.63539
 Alpha  occ. eigenvalues --   -0.56324  -0.51808  -0.47565  -0.47205  -0.45815
 Alpha  occ. eigenvalues --   -0.43494  -0.41457  -0.38241  -0.37072  -0.36357
 Alpha  occ. eigenvalues --   -0.34906  -0.32645  -0.30985  -0.27912
 Alpha virt. eigenvalues --    0.01856   0.04813   0.05708   0.07793   0.09049
 Alpha virt. eigenvalues --    0.09314   0.11043   0.11682   0.11927   0.12977
 Alpha virt. eigenvalues --    0.13676   0.15074   0.16783   0.18262   0.20312

 Mulliken atomic charges:
              1
     1  H    0.129062
     2  C   -0.392507
     3  C   -0.307518
     4  H    0.085095
     5  H    0.142543
     6  H    0.116150
     7  Si   0.551647
     8  H    0.097260
     9  O   -0.520222
    10  O   -0.330914
    11  H   -0.039947
    12  H    0.315281
    13  C   -0.223432
    14  H    0.132224
    15  H    0.120268
    16  H    0.125011
 Sum of Mulliken atomic charges =   0.00000

 Dipole moment (field-independent basis, Debye):
    X=              0.7829    Y=             -0.5617    Z=             -0.5178  Tot=              1.0939
 Quadrupole moment (field-independent basis, Debye-Ang):
   XX=            -40.2322   YY=            -49.6799   ZZ=            -43.4965
   XY=              0.1207   XZ=              0.7290   YZ=              0.1409

 Normal termination of Gaussian 09 at Wed Aug  8 18:28:25 2018.
