 Gaussian 09, Revision C.01,
 Gaussian 09:  EM64L-G09RevC.01 23-Sep-2011

 --------------------------------------
 #SP PBE1PBE/Def2TZVP geom=connectivity
 --------------------------------------

 99/5=1,9=1/99;
 -------------
 Structure: 63
 -------------
 Charge =  0 Multiplicity = 1

                         Standard orientation:
 ---------------------------------------------------------------------
 Center     Atomic      Atomic             Coordinates (Angstroms)
 Number     Number       Type             X           Y           Z
 ---------------------------------------------------------------------
      1          1           0       -3.215196   -1.219911   -0.486737
      2          6           0       -2.223658   -0.788473   -0.645994
      3          6           0       -1.611193   -0.289449    0.662037
      4          1           0       -2.343379    0.022019   -1.371310
      5          1           0       -1.598840   -1.556579   -1.108407
      6          1           0       -2.252420    0.473280    1.117533
      7         14           0        0.095628    0.430868    0.488454
      8          1           0       -1.549754   -1.107953    1.387121
      9          8           0        0.100874    1.723051   -0.535378
     10          8           0        1.046681   -0.798373   -0.043082
     11          1           0        0.633107    0.973222    1.762711
     12          1           0       -0.266168    1.594823   -1.411008
     13          6           0        2.438698   -0.688446   -0.227091
     14          1           0        2.826252   -1.667450   -0.514398
     15          1           0        2.941223   -0.372999    0.695255
     16          1           0        2.682873    0.030192   -1.015145
 ---------------------------------------------------------------------

 SCF Done:  E(RPBE1PBE) =  -560.061224953     A.U. after   12 cycles

 The electronic state is 1-A.
 Alpha  occ. eigenvalues --  -66.25400 -19.20222 -19.20104 -10.26510 -10.21702
 Alpha  occ. eigenvalues --  -10.20751  -5.33060  -3.66583  -3.66479  -3.66331
 Alpha  occ. eigenvalues --   -1.04473  -1.02313  -0.78146  -0.70578  -0.64007
 Alpha  occ. eigenvalues --   -0.56680  -0.51235  -0.46900  -0.46662  -0.45947
 Alpha  occ. eigenvalues --   -0.43563  -0.40968  -0.39032  -0.37238  -0.36574
 Alpha  occ. eigenvalues --   -0.35633  -0.31945  -0.30443  -0.29674
 Alpha virt. eigenvalues --    0.02328   0.05516   0.06031   0.08025   0.08980
 Alpha virt. eigenvalues --    0.10145   0.10935   0.11347   0.12259   0.13476
 Alpha virt. eigenvalues --    0.13941   0.15218   0.16210   0.16715   0.19334

 Mulliken atomic charges:
              1
     1  H    0.130140
     2  C   -0.393956
     3  C   -0.305578
     4  H    0.104239
     5  H    0.142396
     6  H    0.120934
     7  Si   0.540171
     8  H    0.116517
     9  O   -0.528091
    10  O   -0.338496
    11  H   -0.062102
    12  H    0.319124
    13  C   -0.212549
    14  H    0.129020
    15  H    0.117797
    16  H    0.120436
 Sum of Mulliken atomic charges =   0.00000

 Dipole moment (field-independent basis, Debye):
    X=             -0.2076    Y=             -0.5886    Z=             -0.8637  Tot=              1.0657
 Quadrupole moment (field-independent basis, Debye-Ang):
   XX=            -41.0954   YY=            -49.3487   ZZ=            -42.8809
   XY=             -1.5474   XZ=             -0.1018   YZ=             -1.6580

 Normal termination of Gaussian 09 at Wed Aug  8 17:58:09 2018.
