 Gaussian 09, Revision C.01,
 Gaussian 09:  EM64L-G09RevC.01 23-Sep-2011

 --------------------------------------
 #SP PBE1PBE/Def2TZVP geom=connectivity
 --------------------------------------

 99/5=1,9=1/99;
 -------------
 Structure: 67
 -------------
 Charge =  0 Multiplicity = 1

                         Standard orientation:
 ---------------------------------------------------------------------
 Center     Atomic      Atomic             Coordinates (Angstroms)
 Number     Number       Type             X           Y           Z
 ---------------------------------------------------------------------
      1          1           0       -3.228355   -1.199984   -0.491790
      2          6           0       -2.233657   -0.775423   -0.649819
      3          6           0       -1.620401   -0.278374    0.658594
      4          1           0       -2.346573    0.034673   -1.376667
      5          1           0       -1.613085   -1.548425   -1.109784
      6          1           0       -2.257403    0.489348    1.111619
      7         14           0        0.091517    0.430267    0.487162
      8          1           0       -1.565819   -1.096094    1.385109
      9          8           0        0.145158    1.724383   -0.533033
     10          8           0        1.035375   -0.806145   -0.040554
     11          1           0        0.630144    0.971090    1.761585
     12          1           0       -0.210966    1.607438   -1.415027
     13          6           0        2.428446   -0.705797   -0.222041
     14          1           0        2.810016   -1.687827   -0.507022
     15          1           0        2.931285   -0.392213    0.700769
     16          1           0        2.678926    0.009919   -1.010773
 ---------------------------------------------------------------------

 SCF Done:  E(RPBE1PBE) =  -560.061316409     A.U. after   12 cycles

 The electronic state is 1-A.
 Alpha  occ. eigenvalues --  -66.25385 -19.20246 -19.20031 -10.26460 -10.21729
 Alpha  occ. eigenvalues --  -10.20849  -5.33045  -3.66570  -3.66462  -3.66317
 Alpha  occ. eigenvalues --   -1.04440  -1.02285  -0.78201  -0.70530  -0.64049
 Alpha  occ. eigenvalues --   -0.56688  -0.51187  -0.46854  -0.46629  -0.45977
 Alpha  occ. eigenvalues --   -0.43566  -0.40949  -0.39071  -0.37229  -0.36585
 Alpha  occ. eigenvalues --   -0.35660  -0.31893  -0.30445  -0.29688
 Alpha virt. eigenvalues --    0.02300   0.05544   0.06040   0.08017   0.08974
 Alpha virt. eigenvalues --    0.10170   0.10867   0.11403   0.12299   0.13492
 Alpha virt. eigenvalues --    0.14035   0.15235   0.16109   0.16570   0.19300

 Mulliken atomic charges:
              1
     1  H    0.130210
     2  C   -0.393571
     3  C   -0.305680
     4  H    0.105249
     5  H    0.142481
     6  H    0.121236
     7  Si   0.538988
     8  H    0.117676
     9  O   -0.527629
    10  O   -0.339115
    11  H   -0.063361
    12  H    0.318730
    13  C   -0.211473
    14  H    0.128802
    15  H    0.117603
    16  H    0.119855
 Sum of Mulliken atomic charges =   0.00000

 Dipole moment (field-independent basis, Debye):
    X=             -0.2725    Y=             -0.5817    Z=             -0.8887  Tot=              1.0966
 Quadrupole moment (field-independent basis, Debye-Ang):
   XX=            -41.1635   YY=            -49.2951   ZZ=            -42.8615
   XY=             -1.6361   XZ=             -0.1867   YZ=             -1.7413

 Normal termination of Gaussian 09 at Wed Aug  8 18:16:29 2018.
