 Gaussian 09, Revision C.01,
 Gaussian 09:  EM64L-G09RevC.01 23-Sep-2011

 --------------------------------------
 #SP PBE1PBE/Def2TZVP geom=connectivity
 --------------------------------------

 99/5=1,9=1/99;
 -------------
 Structure: 66
 -------------
 Charge =  0 Multiplicity = 1

                         Standard orientation:
 ---------------------------------------------------------------------
 Center     Atomic      Atomic             Coordinates (Angstroms)
 Number     Number       Type             X           Y           Z
 ---------------------------------------------------------------------
      1          1           0       -3.225040   -1.205094   -0.490348
      2          6           0       -2.231138   -0.778815   -0.648758
      3          6           0       -1.618083   -0.281050    0.659478
      4          1           0       -2.345777    0.031267   -1.375352
      5          1           0       -1.609486   -1.550655   -1.109215
      6          1           0       -2.256161    0.485485    1.113002
      7         14           0        0.092551    0.430525    0.487384
      8          1           0       -1.561765   -1.098854    1.385766
      9          8           0        0.133950    1.723775   -0.533623
     10          8           0        1.038238   -0.804163   -0.041096
     11          1           0        0.630886    0.971945    1.761676
     12          1           0       -0.224725    1.604374   -1.414887
     13          6           0        2.431049   -0.701416   -0.223238
     14          1           0        2.814139   -1.682731   -0.508646
     15          1           0        2.933808   -0.387209    0.699404
     16          1           0        2.679935    0.014915   -1.011917
 ---------------------------------------------------------------------

 SCF Done:  E(RPBE1PBE) =  -560.061306299     A.U. after   12 cycles

 The electronic state is 1-A.
 Alpha  occ. eigenvalues --  -66.25382 -19.20248 -19.20047 -10.26471 -10.21720
 Alpha  occ. eigenvalues --  -10.20821  -5.33043  -3.66568  -3.66461  -3.66314
 Alpha  occ. eigenvalues --   -1.04446  -1.02287  -0.78184  -0.70541  -0.64036
 Alpha  occ. eigenvalues --   -0.56687  -0.51198  -0.46864  -0.46636  -0.45967
 Alpha  occ. eigenvalues --   -0.43563  -0.40951  -0.39062  -0.37230  -0.36584
 Alpha  occ. eigenvalues --   -0.35655  -0.31904  -0.30441  -0.29683
 Alpha virt. eigenvalues --    0.02302   0.05538   0.06038   0.08020   0.08973
 Alpha virt. eigenvalues --    0.10166   0.10886   0.11391   0.12290   0.13488
 Alpha virt. eigenvalues --    0.14014   0.15230   0.16138   0.16605   0.19308

 Mulliken atomic charges:
              1
     1  H    0.130188
     2  C   -0.393672
     3  C   -0.305667
     4  H    0.104971
     5  H    0.142453
     6  H    0.121138
     7  Si   0.539264
     8  H    0.117367
     9  O   -0.527724
    10  O   -0.338985
    11  H   -0.063086
    12  H    0.319016
    13  C   -0.211738
    14  H    0.128853
    15  H    0.117651
    16  H    0.119970
 Sum of Mulliken atomic charges =   0.00000

 Dipole moment (field-independent basis, Debye):
    X=             -0.2556    Y=             -0.5810    Z=             -0.8850  Tot=              1.0891
 Quadrupole moment (field-independent basis, Debye-Ang):
   XX=            -41.1499   YY=            -49.3039   ZZ=            -42.8629
   XY=             -1.6136   XZ=             -0.1654   YZ=             -1.7251

 Normal termination of Gaussian 09 at Wed Aug  8 18:11:48 2018.
