 Gaussian 09, Revision C.01,
 Gaussian 09:  EM64L-G09RevC.01 23-Sep-2011

 --------------------------------------
 #SP PBE1PBE/Def2TZVP geom=connectivity
 --------------------------------------

 99/5=1,9=1/99;
 -------------
 Structure: 78
 -------------
 Charge =  0 Multiplicity = 1

                         Standard orientation:
 ---------------------------------------------------------------------
 Center     Atomic      Atomic             Coordinates (Angstroms)
 Number     Number       Type             X           Y           Z
 ---------------------------------------------------------------------
      1          1           0       -3.263996   -1.145308   -0.502224
      2          6           0       -2.260849   -0.740353   -0.658292
      3          6           0       -1.645229   -0.244481    0.649457
      4          1           0       -2.355103    0.065992   -1.391939
      5          1           0       -1.652286   -1.528197   -1.109027
      6          1           0       -2.270282    0.538333    1.093207
      7         14           0        0.080310    0.431205    0.481565
      8          1           0       -1.609437   -1.057378    1.382523
      9          8           0        0.266801    1.720156   -0.528927
     10          8           0        1.003907   -0.826430   -0.031652
     11          1           0        0.622295    0.971949    1.754597
     12          1           0       -0.056549    1.629908   -1.426798
     13          6           0        2.399499   -0.753131   -0.206589
     14          1           0        2.764359   -1.744203   -0.481994
     15          1           0        2.903311   -0.441663    0.716407
     16          1           0        2.667152   -0.048311   -0.999483
 ---------------------------------------------------------------------

 SCF Done:  E(RPBE1PBE) =  -560.060853809     A.U. after   12 cycles

 The electronic state is 1-A.
 Alpha  occ. eigenvalues --  -66.25345 -19.20292 -19.19826 -10.26319 -10.21805
 Alpha  occ. eigenvalues --  -10.21110  -5.33008  -3.66540  -3.66419  -3.66277
 Alpha  occ. eigenvalues --   -1.04366  -1.02206  -0.78349  -0.70398  -0.64164
 Alpha  occ. eigenvalues --   -0.56721  -0.51059  -0.46732  -0.46546  -0.46058
 Alpha  occ. eigenvalues --   -0.43571  -0.40906  -0.39175  -0.37198  -0.36622
 Alpha  occ. eigenvalues --   -0.35711  -0.31759  -0.30479  -0.29643
 Alpha virt. eigenvalues --    0.02203   0.05594   0.06053   0.07994   0.08960
 Alpha virt. eigenvalues --    0.10205   0.10680   0.11573   0.12409   0.13532
 Alpha virt. eigenvalues --    0.14313   0.15274   0.15671   0.16339   0.19225

 Mulliken atomic charges:
              1
     1  H    0.130388
     2  C   -0.392659
     3  C   -0.306085
     4  H    0.107842
     5  H    0.142787
     6  H    0.122016
     7  Si   0.535940
     8  H    0.120762
     9  O   -0.525526
    10  O   -0.340885
    11  H   -0.066797
    12  H    0.317304
    13  C   -0.208377
    14  H    0.128197
    15  H    0.117077
    16  H    0.118016
 Sum of Mulliken atomic charges =   0.00000

 Dipole moment (field-independent basis, Debye):
    X=             -0.4443    Y=             -0.5551    Z=             -0.9592  Tot=              1.1940
 Quadrupole moment (field-independent basis, Debye-Ang):
   XX=            -41.3489   YY=            -49.1402   ZZ=            -42.8174
   XY=             -1.8559   XZ=             -0.4307   YZ=             -1.9403

 Normal termination of Gaussian 09 at Wed Aug  8 19:06:17 2018.
