 Gaussian 09, Revision C.01,
 Gaussian 09:  EM64L-G09RevC.01 23-Sep-2011

 --------------------------------------
 #SP PBE1PBE/Def2TZVP geom=connectivity
 --------------------------------------

 99/5=1,9=1/99;
 -------------
 Structure: 77
 -------------
 Charge =  0 Multiplicity = 1

                         Standard orientation:
 ---------------------------------------------------------------------
 Center     Atomic      Atomic             Coordinates (Angstroms)
 Number     Number       Type             X           Y           Z
 ---------------------------------------------------------------------
      1          1           0       -3.260592   -1.150512   -0.501451
      2          6           0       -2.258242   -0.743623   -0.657605
      3          6           0       -1.642872   -0.247936    0.650332
      4          1           0       -2.354284    0.063271   -1.390417
      5          1           0       -1.648497   -1.529942   -1.109405
      6          1           0       -2.269100    0.533331    1.095149
      7         14           0        0.081382    0.430980    0.482270
      8          1           0       -1.605280   -1.061485    1.382584
      9          8           0        0.255059    1.720917   -0.529329
     10          8           0        1.006964   -0.824507   -0.032624
     11          1           0        0.623020    0.971442    1.755569
     12          1           0       -0.071378    1.627874   -1.425266
     13          6           0        2.402339   -0.748557   -0.208161
     14          1           0        2.768827   -1.738709   -0.484712
     15          1           0        2.906043   -0.437096    0.714896
     16          1           0        2.668356   -0.042487   -1.000493
 ---------------------------------------------------------------------

 SCF Done:  E(RPBE1PBE) =  -560.060942516     A.U. after   12 cycles

 The electronic state is 1-A.
 Alpha  occ. eigenvalues --  -66.25349 -19.20286 -19.19847 -10.26333 -10.21798
 Alpha  occ. eigenvalues --  -10.21085  -5.33012  -3.66543  -3.66424  -3.66281
 Alpha  occ. eigenvalues --   -1.04377  -1.02224  -0.78335  -0.70411  -0.64154
 Alpha  occ. eigenvalues --   -0.56723  -0.51073  -0.46744  -0.46554  -0.46051
 Alpha  occ. eigenvalues --   -0.43571  -0.40910  -0.39168  -0.37202  -0.36619
 Alpha  occ. eigenvalues --   -0.35709  -0.31772  -0.30476  -0.29652
 Alpha virt. eigenvalues --    0.02218   0.05591   0.06053   0.07996   0.08963
 Alpha virt. eigenvalues --    0.10203   0.10698   0.11556   0.12399   0.13529
 Alpha virt. eigenvalues --    0.14284   0.15273   0.15720   0.16354   0.19231

 Mulliken atomic charges:
              1
     1  H    0.130374
     2  C   -0.392758
     3  C   -0.306040
     4  H    0.107618
     5  H    0.142755
     6  H    0.121944
     7  Si   0.536174
     8  H    0.120471
     9  O   -0.525624
    10  O   -0.340713
    11  H   -0.066459
    12  H    0.317351
    13  C   -0.208687
    14  H    0.128258
    15  H    0.117126
    16  H    0.118210
 Sum of Mulliken atomic charges =   0.00000

 Dipole moment (field-independent basis, Debye):
    X=             -0.4278    Y=             -0.5587    Z=             -0.9513  Tot=              1.1833
 Quadrupole moment (field-independent basis, Debye-Ang):
   XX=            -41.3304   YY=            -49.1570   ZZ=            -42.8224
   XY=             -1.8352   XZ=             -0.4070   YZ=             -1.9196

 Normal termination of Gaussian 09 at Wed Aug  8 19:02:22 2018.
