 Gaussian 09, Revision C.01,
 Gaussian 09:  EM64L-G09RevC.01 23-Sep-2011

 --------------------------------------
 #SP PBE1PBE/Def2TZVP geom=connectivity
 --------------------------------------

 99/5=1,9=1/99;
 -------------
 Structure: 73
 -------------
 Charge =  0 Multiplicity = 1

                         Standard orientation:
 ---------------------------------------------------------------------
 Center     Atomic      Atomic             Coordinates (Angstroms)
 Number     Number       Type             X           Y           Z
 ---------------------------------------------------------------------
      1          1           0       -3.247708   -1.170354   -0.498053
      2          6           0       -2.248397   -0.756266   -0.654760
      3          6           0       -1.633910   -0.260636    0.653614
      4          1           0       -2.351207    0.052296   -1.384810
      5          1           0       -1.634251   -1.537042   -1.110199
      6          1           0       -2.264519    0.514999    1.102084
      7         14           0        0.085445    0.430344    0.484533
      8          1           0       -1.589506   -1.076242    1.383191
      9          8           0        0.210816    1.723317   -0.530483
     10          8           0        1.018442   -0.817271   -0.036082
     11          1           0        0.625836    0.970364    1.758549
     12          1           0       -0.127331    1.621517   -1.421370
     13          6           0        2.412946   -0.731418   -0.213957
     14          1           0        2.785533   -1.718208   -0.494349
     15          1           0        2.916281   -0.419532    0.709157
     16          1           0        2.672749   -0.021063   -1.004520
 ---------------------------------------------------------------------

 SCF Done:  E(RPBE1PBE) =  -560.061194082     A.U. after   12 cycles

 The electronic state is 1-A.
 Alpha  occ. eigenvalues --  -66.25362 -19.20273 -19.19921 -10.26385 -10.21769
 Alpha  occ. eigenvalues --  -10.20990  -5.33024  -3.66553  -3.66438  -3.66294
 Alpha  occ. eigenvalues --   -1.04400  -1.02249  -0.78280  -0.70459  -0.64111
 Alpha  occ. eigenvalues --   -0.56710  -0.51119  -0.46788  -0.46583  -0.46020
 Alpha  occ. eigenvalues --   -0.43569  -0.40924  -0.39128  -0.37214  -0.36604
 Alpha  occ. eigenvalues --   -0.35693  -0.31819  -0.30459  -0.29676
 Alpha virt. eigenvalues --    0.02254   0.05576   0.06049   0.08004   0.08966
 Alpha virt. eigenvalues --    0.10196   0.10767   0.11494   0.12360   0.13514
 Alpha virt. eigenvalues --    0.14183   0.15259   0.15894   0.16421   0.19257

 Mulliken atomic charges:
              1
     1  H    0.130305
     2  C   -0.393067
     3  C   -0.305868
     4  H    0.106694
     5  H    0.142624
     6  H    0.121652
     7  Si   0.537321
     8  H    0.119350
     9  O   -0.526572
    10  O   -0.340068
    11  H   -0.065215
    12  H    0.317986
    13  C   -0.209824
    14  H    0.128479
    15  H    0.117317
    16  H    0.118887
 Sum of Mulliken atomic charges =   0.00000

 Dipole moment (field-independent basis, Debye):
    X=             -0.3651    Y=             -0.5681    Z=             -0.9267  Tot=              1.1466
 Quadrupole moment (field-independent basis, Debye-Ang):
   XX=            -41.2653   YY=            -49.2115   ZZ=            -42.8349
   XY=             -1.7571   XZ=             -0.3184   YZ=             -1.8541

 Normal termination of Gaussian 09 at Wed Aug  8 18:45:15 2018.
