 Gaussian 09, Revision C.01,
 Gaussian 09:  EM64L-G09RevC.01 23-Sep-2011

 --------------------------------------
 #SP PBE1PBE/Def2TZVP geom=connectivity
 --------------------------------------

 99/5=1,9=1/99;
 -------------
 Structure: 79
 -------------
 Charge =  0 Multiplicity = 1

                         Standard orientation:
 ---------------------------------------------------------------------
 Center     Atomic      Atomic             Coordinates (Angstroms)
 Number     Number       Type             X           Y           Z
 ---------------------------------------------------------------------
      1          1           0       -3.267005   -1.140787   -0.502830
      2          6           0       -2.263152   -0.737572   -0.658863
      3          6           0       -1.647306   -0.241398    0.648666
      4          1           0       -2.355818    0.068205   -1.393335
      5          1           0       -1.655644   -1.526816   -1.108570
      6          1           0       -2.271309    0.542835    1.091385
      7         14           0        0.079371    0.431394    0.480853
      8          1           0       -1.613112   -1.053636    1.382539
      9          8           0        0.277056    1.719903   -0.528544
     10          8           0        1.001196   -0.828199   -0.030743
     11          1           0        0.621667    0.972523    1.753589
     12          1           0       -0.042450    1.630563   -1.428012
     13          6           0        2.396977   -0.757277   -0.205154
     14          1           0        2.760386   -1.749193   -0.479437
     15          1           0        2.900887   -0.445706    0.717753
     16          1           0        2.666082   -0.053655   -0.998620
 ---------------------------------------------------------------------

 SCF Done:  E(RPBE1PBE) =  -560.060767873     A.U. after   12 cycles

 The electronic state is 1-A.
 Alpha  occ. eigenvalues --  -66.25345 -19.20297 -19.19814 -10.26310 -10.21812
 Alpha  occ. eigenvalues --  -10.21132  -5.33008  -3.66541  -3.66419  -3.66277
 Alpha  occ. eigenvalues --   -1.04361  -1.02196  -0.78362  -0.70390  -0.64175
 Alpha  occ. eigenvalues --   -0.56713  -0.51049  -0.46724  -0.46543  -0.46064
 Alpha  occ. eigenvalues --   -0.43573  -0.40902  -0.39184  -0.37193  -0.36625
 Alpha  occ. eigenvalues --   -0.35712  -0.31752  -0.30487  -0.29637
 Alpha virt. eigenvalues --    0.02191   0.05596   0.06052   0.07992   0.08958
 Alpha virt. eigenvalues --    0.10203   0.10663   0.11587   0.12418   0.13535
 Alpha virt. eigenvalues --    0.14335   0.15272   0.15629   0.16324   0.19219

 Mulliken atomic charges:
              1
     1  H    0.130403
     2  C   -0.392627
     3  C   -0.306059
     4  H    0.108093
     5  H    0.142808
     6  H    0.122097
     7  Si   0.535661
     8  H    0.121021
     9  O   -0.525368
    10  O   -0.341023
    11  H   -0.067083
    12  H    0.317137
    13  C   -0.208117
    14  H    0.128159
    15  H    0.117057
    16  H    0.117841
 Sum of Mulliken atomic charges =   0.00000

 Dipole moment (field-independent basis, Debye):
    X=             -0.4567    Y=             -0.5559    Z=             -0.9656  Tot=              1.2041
 Quadrupole moment (field-independent basis, Debye-Ang):
   XX=            -41.3623   YY=            -49.1363   ZZ=            -42.8137
   XY=             -1.8717   XZ=             -0.4550   YZ=             -1.9533

 Normal termination of Gaussian 09 at Wed Aug  8 19:10:19 2018.
