 Gaussian 09, Revision C.01,
 Gaussian 09:  EM64L-G09RevC.01 23-Sep-2011

 --------------------------------------
 #SP PBE1PBE/Def2TZVP geom=connectivity
 --------------------------------------

 99/5=1,9=1/99;
 ------------
 Structure: 7
 ------------
 Charge =  0 Multiplicity = 1

                         Standard orientation:
 ---------------------------------------------------------------------
 Center     Atomic      Atomic             Coordinates (Angstroms)
 Number     Number       Type             X           Y           Z
 ---------------------------------------------------------------------
      1          1           0       -3.040518   -1.457411   -0.337886
      2          6           0       -2.090314   -0.958820   -0.545658
      3          6           0       -1.485328   -0.352446    0.719802
      4          1           0       -2.291912   -0.195362   -1.303156
      5          1           0       -1.419318   -1.697536   -0.990935
      6          1           0       -2.172433    0.379319    1.158899
      7         14           0        0.154690    0.488336    0.463573
      8          1           0       -1.341190   -1.128391    1.479146
      9          8           0       -0.476147    1.560010   -0.617779
     10          8           0        1.185192   -0.687735   -0.039408
     11          1           0        0.680677    1.130471    1.695548
     12          1           0       -0.953354    1.203028   -1.368490
     13          6           0        2.559085   -0.479613   -0.269095
     14          1           0        3.014689   -1.438343   -0.522975
     15          1           0        3.058954   -0.082869    0.622805
     16          1           0        2.725727    0.217461   -1.095780
 ---------------------------------------------------------------------

 SCF Done:  E(RPBE1PBE) =  -560.042873466     A.U. after   13 cycles

 The electronic state is 1-A.
 Alpha  occ. eigenvalues --  -66.25782 -19.21095 -19.19398 -10.27169 -10.21436
 Alpha  occ. eigenvalues --  -10.19288  -5.33430  -3.66950  -3.66883  -3.66661
 Alpha  occ. eigenvalues --   -1.05039  -1.02174  -0.77390  -0.71230  -0.63541
 Alpha  occ. eigenvalues --   -0.56334  -0.51799  -0.47551  -0.47193  -0.45809
 Alpha  occ. eigenvalues --   -0.43493  -0.41443  -0.38256  -0.37082  -0.36364
 Alpha  occ. eigenvalues --   -0.34921  -0.32634  -0.30972  -0.27963
 Alpha virt. eigenvalues --    0.01883   0.04823   0.05717   0.07805   0.09046
 Alpha virt. eigenvalues --    0.09327   0.11045   0.11687   0.11920   0.12981
 Alpha virt. eigenvalues --    0.13670   0.15078   0.16777   0.18254   0.20296

 Mulliken atomic charges:
              1
     1  H    0.129071
     2  C   -0.392687
     3  C   -0.307419
     4  H    0.085378
     5  H    0.142528
     6  H    0.116206
     7  Si   0.551552
     8  H    0.097674
     9  O   -0.520646
    10  O   -0.331037
    11  H   -0.040460
    12  H    0.315798
    13  C   -0.223299
    14  H    0.132157
    15  H    0.120226
    16  H    0.124956
 Sum of Mulliken atomic charges =   0.00000

 Dipole moment (field-independent basis, Debye):
    X=              0.7632    Y=             -0.5621    Z=             -0.5260  Tot=              1.0841
 Quadrupole moment (field-independent basis, Debye-Ang):
   XX=            -40.2469   YY=            -49.6833   ZZ=            -43.4738
   XY=              0.0821   XZ=              0.7248   YZ=              0.0961

 Normal termination of Gaussian 09 at Wed Aug  8 19:14:32 2018.
