 Gaussian 09, Revision C.01,
 Gaussian 09:  EM64L-G09RevC.01 23-Sep-2011

 --------------------------------------
 #SP PBE1PBE/Def2TZVP geom=connectivity
 --------------------------------------

 99/5=1,9=1/99;
 -------------
 Structure: 71
 -------------
 Charge =  0 Multiplicity = 1

                         Standard orientation:
 ---------------------------------------------------------------------
 Center     Atomic      Atomic             Coordinates (Angstroms)
 Number     Number       Type             X           Y           Z
 ---------------------------------------------------------------------
      1          1           0       -3.241273   -1.180189   -0.496188
      2          6           0       -2.243490   -0.762563   -0.653242
      3          6           0       -1.629430   -0.266731    0.655256
      4          1           0       -2.349667    0.046677   -1.382057
      5          1           0       -1.627179   -1.540653   -1.110349
      6          1           0       -2.262192    0.506174    1.105403
      7         14           0        0.087461    0.430197    0.485548
      8          1           0       -1.581634   -1.083208    1.383644
      9          8           0        0.188900    1.723836   -0.531283
     10          8           0        1.024110   -0.813579   -0.037690
     11          1           0        0.627247    0.970221    1.759819
     12          1           0       -0.155184    1.618079   -1.418730
     13          6           0        2.418155   -0.722843   -0.216741
     14          1           0        2.793756   -1.707994   -0.498867
     15          1           0        2.921314   -0.410582    0.706343
     16          1           0        2.674857   -0.010520   -1.006544
 ---------------------------------------------------------------------

 SCF Done:  E(RPBE1PBE) =  -560.061268190     A.U. after   12 cycles

 The electronic state is 1-A.
 Alpha  occ. eigenvalues --  -66.25370 -19.20258 -19.19956 -10.26409 -10.21754
 Alpha  occ. eigenvalues --  -10.20943  -5.33031  -3.66558  -3.66445  -3.66302
 Alpha  occ. eigenvalues --   -1.04415  -1.02272  -0.78253  -0.70482  -0.64090
 Alpha  occ. eigenvalues --   -0.56717  -0.51144  -0.46809  -0.46597  -0.46005
 Alpha  occ. eigenvalues --   -0.43567  -0.40933  -0.39108  -0.37221  -0.36598
 Alpha  occ. eigenvalues --   -0.35684  -0.31842  -0.30452  -0.29683
 Alpha virt. eigenvalues --    0.02277   0.05567   0.06048   0.08008   0.08971
 Alpha virt. eigenvalues --    0.10190   0.10801   0.11464   0.12340   0.13508
 Alpha virt. eigenvalues --    0.14133   0.15253   0.15975   0.16464   0.19271

 Mulliken atomic charges:
              1
     1  H    0.130269
     2  C   -0.393201
     3  C   -0.305821
     4  H    0.106220
     5  H    0.142567
     6  H    0.121505
     7  Si   0.537957
     8  H    0.118792
     9  O   -0.526888
    10  O   -0.339753
    11  H   -0.064602
    12  H    0.318131
    13  C   -0.210380
    14  H    0.128584
    15  H    0.117405
    16  H    0.119217
 Sum of Mulliken atomic charges =   0.00000

 Dipole moment (field-independent basis, Debye):
    X=             -0.3345    Y=             -0.5712    Z=             -0.9136  Tot=              1.1282
 Quadrupole moment (field-independent basis, Debye-Ang):
   XX=            -41.2319   YY=            -49.2339   ZZ=            -42.8442
   XY=             -1.7180   XZ=             -0.2741   YZ=             -1.8195

 Normal termination of Gaussian 09 at Wed Aug  8 18:36:59 2018.
