 Gaussian 09, Revision C.01,
 Gaussian 09:  EM64L-G09RevC.01 23-Sep-2011

 --------------------------------------
 #SP PBE1PBE/Def2TZVP geom=connectivity
 --------------------------------------

 99/5=1,9=1/99;
 -------------
 Structure: 70
 -------------
 Charge =  0 Multiplicity = 1

                         Standard orientation:
 ---------------------------------------------------------------------
 Center     Atomic      Atomic             Coordinates (Angstroms)
 Number     Number       Type             X           Y           Z
 ---------------------------------------------------------------------
      1          1           0       -3.238127   -1.185083   -0.495170
      2          6           0       -2.241094   -0.765750   -0.652442
      3          6           0       -1.627218   -0.269715    0.656065
      4          1           0       -2.348923    0.043755   -1.380719
      5          1           0       -1.623744   -1.542569   -1.110309
      6          1           0       -2.261015    0.501895    1.106976
      7         14           0        0.088466    0.430087    0.485968
      8          1           0       -1.577759   -1.086553    1.383938
      9          8           0        0.178280    1.724645   -0.531546
     10          8           0        1.026875   -0.811859   -0.038461
     11          1           0        0.627980    0.970214    1.760310
     12          1           0       -0.169806    1.615145   -1.417868
     13          6           0        2.420687   -0.718763   -0.218115
     14          1           0        2.797744   -1.703137   -0.501012
     15          1           0        2.923777   -0.406246    0.704920
     16          1           0        2.675865   -0.005551   -1.007609
 ---------------------------------------------------------------------

 SCF Done:  E(RPBE1PBE) =  -560.061292401     A.U. after   12 cycles

 The electronic state is 1-A.
 Alpha  occ. eigenvalues --  -66.25377 -19.20262 -19.19978 -10.26423 -10.21751
 Alpha  occ. eigenvalues --  -10.20923  -5.33037  -3.66564  -3.66452  -3.66308
 Alpha  occ. eigenvalues --   -1.04418  -1.02262  -0.78243  -0.70495  -0.64082
 Alpha  occ. eigenvalues --   -0.56689  -0.51151  -0.46821  -0.46606  -0.46001
 Alpha  occ. eigenvalues --   -0.43569  -0.40938  -0.39101  -0.37222  -0.36594
 Alpha  occ. eigenvalues --   -0.35676  -0.31855  -0.30453  -0.29688
 Alpha virt. eigenvalues --    0.02276   0.05560   0.06044   0.08010   0.08970
 Alpha virt. eigenvalues --    0.10183   0.10814   0.11447   0.12328   0.13502
 Alpha virt. eigenvalues --    0.14107   0.15247   0.16008   0.16483   0.19277

 Mulliken atomic charges:
              1
     1  H    0.130266
     2  C   -0.393297
     3  C   -0.305772
     4  H    0.105980
     5  H    0.142560
     6  H    0.121470
     7  Si   0.538091
     8  H    0.118541
     9  O   -0.527211
    10  O   -0.339571
    11  H   -0.064280
    12  H    0.318362
    13  C   -0.210655
    14  H    0.128640
    15  H    0.117461
    16  H    0.119414
 Sum of Mulliken atomic charges =   0.00000

 Dipole moment (field-independent basis, Debye):
    X=             -0.3209    Y=             -0.5773    Z=             -0.9066  Tot=              1.1216
 Quadrupole moment (field-independent basis, Debye-Ang):
   XX=            -41.2123   YY=            -49.2581   ZZ=            -42.8500
   XY=             -1.7002   XZ=             -0.2506   YZ=             -1.7973

 Normal termination of Gaussian 09 at Wed Aug  8 18:32:41 2018.
