 Gaussian 09, Revision C.01,
 Gaussian 09:  EM64L-G09RevC.01 23-Sep-2011

 --------------------------------------
 #SP PBE1PBE/Def2TZVP geom=connectivity
 --------------------------------------

 99/5=1,9=1/99;
 -------------
 Structure: 75
 -------------
 Charge =  0 Multiplicity = 1

                         Standard orientation:
 ---------------------------------------------------------------------
 Center     Atomic      Atomic             Coordinates (Angstroms)
 Number     Number       Type             X           Y           Z
 ---------------------------------------------------------------------
      1          1           0       -3.254117   -1.160516   -0.499864
      2          6           0       -2.253289   -0.749985   -0.656250
      3          6           0       -1.638368   -0.254473    0.651965
      4          1           0       -2.352733    0.057837   -1.387583
      5          1           0       -1.641323   -1.533469   -1.109968
      6          1           0       -2.266807    0.523915    1.098707
      7         14           0        0.083432    0.430535    0.483467
      8          1           0       -1.597353   -1.069146    1.382782
      9          8           0        0.232733    1.722637   -0.529781
     10          8           0        1.012754   -0.820942   -0.034444
     11          1           0        0.624438    0.970633    1.757190
     12          1           0       -0.099379    1.624889   -1.423124
     13          6           0        2.407701   -0.739990   -0.211148
     14          1           0        2.777261   -1.728425   -0.489741
     15          1           0        2.911216   -0.428419    0.711975
     16          1           0        2.670597   -0.031669   -1.002512
 ---------------------------------------------------------------------

 SCF Done:  E(RPBE1PBE) =  -560.061085996     A.U. after   12 cycles

 The electronic state is 1-A.
 Alpha  occ. eigenvalues --  -66.25358 -19.20278 -19.19887 -10.26361 -10.21783
 Alpha  occ. eigenvalues --  -10.21039  -5.33021  -3.66550  -3.66433  -3.66291
 Alpha  occ. eigenvalues --   -1.04389  -1.02237  -0.78308  -0.70437  -0.64133
 Alpha  occ. eigenvalues --   -0.56712  -0.51097  -0.46767  -0.46570  -0.46036
 Alpha  occ. eigenvalues --   -0.43571  -0.40918  -0.39148  -0.37208  -0.36611
 Alpha  occ. eigenvalues --   -0.35701  -0.31797  -0.30469  -0.29667
 Alpha virt. eigenvalues --    0.02238   0.05583   0.06051   0.07999   0.08965
 Alpha virt. eigenvalues --    0.10199   0.10732   0.11524   0.12379   0.13522
 Alpha virt. eigenvalues --    0.14232   0.15267   0.15808   0.16383   0.19243

 Mulliken atomic charges:
              1
     1  H    0.130340
     2  C   -0.392923
     3  C   -0.305924
     4  H    0.107178
     5  H    0.142684
     6  H    0.121808
     7  Si   0.536752
     8  H    0.119913
     9  O   -0.526160
    10  O   -0.340374
    11  H   -0.065818
    12  H    0.317622
    13  C   -0.209270
    14  H    0.128375
    15  H    0.117230
    16  H    0.118566
 Sum of Mulliken atomic charges =   0.00000

 Dipole moment (field-independent basis, Debye):
    X=             -0.3958    Y=             -0.5654    Z=             -0.9383  Tot=              1.1648
 Quadrupole moment (field-independent basis, Debye-Ang):
   XX=            -41.2962   YY=            -49.1889   ZZ=            -42.8290
   XY=             -1.7960   XZ=             -0.3631   YZ=             -1.8857

 Normal termination of Gaussian 09 at Wed Aug  8 18:53:29 2018.
