 Gaussian 09, Revision C.01,
 Gaussian 09:  EM64L-G09RevC.01 23-Sep-2011

 --------------------------------------
 #SP PBE1PBE/Def2TZVP geom=connectivity
 --------------------------------------

 99/5=1,9=1/99;
 -------------
 Structure: 76
 -------------
 Charge =  0 Multiplicity = 1

                         Standard orientation:
 ---------------------------------------------------------------------
 Center     Atomic      Atomic             Coordinates (Angstroms)
 Number     Number       Type             X           Y           Z
 ---------------------------------------------------------------------
      1          1           0       -3.257510   -1.155380   -0.500579
      2          6           0       -2.255886   -0.746769   -0.656898
      3          6           0       -1.640714   -0.251035    0.651114
      4          1           0       -2.353558    0.060496   -1.389085
      5          1           0       -1.645086   -1.531784   -1.109542
      6          1           0       -2.267992    0.528906    1.096779
      7         14           0        0.082371    0.430770    0.482753
      8          1           0       -1.601481   -1.065048    1.382764
      9          8           0        0.244466    1.721939   -0.529438
     10          8           0        1.009732   -0.822860   -0.033465
     11          1           0        0.623724    0.971186    1.756194
     12          1           0       -0.085503    1.626615   -1.424563
     13          6           0        2.404903   -0.744543   -0.209585
     14          1           0        2.772853   -1.733906   -0.487014
     15          1           0        2.908528   -0.432937    0.713466
     16          1           0        2.669423   -0.037478   -1.001530
 ---------------------------------------------------------------------

 SCF Done:  E(RPBE1PBE) =  -560.061014383     A.U. after   12 cycles

 The electronic state is 1-A.
 Alpha  occ. eigenvalues --  -66.25352 -19.20289 -19.19866 -10.26346 -10.21792
 Alpha  occ. eigenvalues --  -10.21063  -5.33015  -3.66545  -3.66427  -3.66285
 Alpha  occ. eigenvalues --   -1.04378  -1.02220  -0.78323  -0.70423  -0.64144
 Alpha  occ. eigenvalues --   -0.56707  -0.51082  -0.46755  -0.46561  -0.46045
 Alpha  occ. eigenvalues --   -0.43572  -0.40913  -0.39159  -0.37204  -0.36615
 Alpha  occ. eigenvalues --   -0.35704  -0.31783  -0.30473  -0.29660
 Alpha virt. eigenvalues --    0.02221   0.05588   0.06051   0.07998   0.08962
 Alpha virt. eigenvalues --    0.10201   0.10714   0.11541   0.12388   0.13524
 Alpha virt. eigenvalues --    0.14261   0.15270   0.15760   0.16367   0.19237

 Mulliken atomic charges:
              1
     1  H    0.130361
     2  C   -0.392822
     3  C   -0.306003
     4  H    0.107383
     5  H    0.142728
     6  H    0.121887
     7  Si   0.536396
     8  H    0.120211
     9  O   -0.525951
    10  O   -0.340548
    11  H   -0.066171
    12  H    0.317608
    13  C   -0.208963
    14  H    0.128312
    15  H    0.117179
    16  H    0.118392
 Sum of Mulliken atomic charges =   0.00000

 Dipole moment (field-independent basis, Debye):
    X=             -0.4137    Y=             -0.5622    Z=             -0.9459  Tot=              1.1756
 Quadrupole moment (field-independent basis, Debye-Ang):
   XX=            -41.3141   YY=            -49.1732   ZZ=            -42.8256
   XY=             -1.8186   XZ=             -0.3843   YZ=             -1.9049

 Normal termination of Gaussian 09 at Wed Aug  8 18:58:09 2018.
