 Gaussian 09, Revision C.01,
 Gaussian 09:  EM64L-G09RevC.01 23-Sep-2011

 --------------------------------------
 #SP PBE1PBE/Def2TZVP geom=connectivity
 --------------------------------------

 99/5=1,9=1/99;
 -------------
 Structure: 74
 -------------
 Charge =  0 Multiplicity = 1

                         Standard orientation:
 ---------------------------------------------------------------------
 Center     Atomic      Atomic             Coordinates (Angstroms)
 Number     Number       Type             X           Y           Z
 ---------------------------------------------------------------------
      1          1           0       -3.251116   -1.165230   -0.498778
      2          6           0       -2.251002   -0.753058   -0.655415
      3          6           0       -1.636270   -0.257215    0.652763
      4          1           0       -2.352037    0.054959   -1.386314
      5          1           0       -1.638014   -1.535366   -1.109784
      6          1           0       -2.265726    0.519974    1.100162
      7         14           0        0.084381    0.430568    0.483826
      8          1           0       -1.593652   -1.072175    1.383170
      9          8           0        0.222553    1.722686   -0.530143
     10          8           0        1.015427   -0.819205   -0.035105
     11          1           0        0.625113    0.970898    1.757566
     12          1           0       -0.113466    1.623340   -1.422811
     13          6           0        2.410166   -0.735985   -0.212394
     14          1           0        2.781148   -1.723707   -0.491629
     15          1           0        2.913608   -0.424071    0.710653
     16          1           0        2.671599   -0.026873   -1.003535
 ---------------------------------------------------------------------

 SCF Done:  E(RPBE1PBE) =  -560.061139617     A.U. after   12 cycles

 The electronic state is 1-A.
 Alpha  occ. eigenvalues --  -66.25354 -19.20285 -19.19900 -10.26370 -10.21777
 Alpha  occ. eigenvalues --  -10.21014  -5.33017  -3.66546  -3.66430  -3.66287
 Alpha  occ. eigenvalues --   -1.04390  -1.02235  -0.78295  -0.70445  -0.64122
 Alpha  occ. eigenvalues --   -0.56707  -0.51104  -0.46775  -0.46574  -0.46029
 Alpha  occ. eigenvalues --   -0.43569  -0.40918  -0.39141  -0.37210  -0.36609
 Alpha  occ. eigenvalues --   -0.35699  -0.31804  -0.30463  -0.29670
 Alpha virt. eigenvalues --    0.02238   0.05581   0.06050   0.08003   0.08963
 Alpha virt. eigenvalues --    0.10198   0.10749   0.11511   0.12370   0.13517
 Alpha virt. eigenvalues --    0.14213   0.15264   0.15847   0.16402   0.19250

 Mulliken atomic charges:
              1
     1  H    0.130326
     2  C   -0.392965
     3  C   -0.305959
     4  H    0.106900
     5  H    0.142667
     6  H    0.121729
     7  Si   0.536937
     8  H    0.119649
     9  O   -0.526303
    10  O   -0.340248
    11  H   -0.065583
    12  H    0.317976
    13  C   -0.209520
    14  H    0.128415
    15  H    0.117265
    16  H    0.118712
 Sum of Mulliken atomic charges =   0.00000

 Dipole moment (field-independent basis, Debye):
    X=             -0.3831    Y=             -0.5646    Z=             -0.9346  Tot=              1.1572
 Quadrupole moment (field-independent basis, Debye-Ang):
   XX=            -41.2836   YY=            -49.1952   ZZ=            -42.8314
   XY=             -1.7801   XZ=             -0.3395   YZ=             -1.8738

 Normal termination of Gaussian 09 at Wed Aug  8 18:49:14 2018.
