 Gaussian 09, Revision C.01,
 Gaussian 09:  EM64L-G09RevC.01 23-Sep-2011

 --------------------------------------
 #SP PBE1PBE/Def2TZVP geom=connectivity
 --------------------------------------

 99/5=1,9=1/99;
 -------------
 Structure: 72
 -------------
 Charge =  0 Multiplicity = 1

                         Standard orientation:
 ---------------------------------------------------------------------
 Center     Atomic      Atomic             Coordinates (Angstroms)
 Number     Number       Type             X           Y           Z
 ---------------------------------------------------------------------
      1          1           0       -3.244607   -1.175223   -0.497078
      2          6           0       -2.246031   -0.759445   -0.653995
      3          6           0       -1.631741   -0.263608    0.654392
      4          1           0       -2.350466    0.049383   -1.383519
      5          1           0       -1.630846   -1.538968   -1.110176
      6          1           0       -2.263383    0.510752    1.103609
      7         14           0        0.086431    0.430221    0.484938
      8          1           0       -1.585699   -1.079574    1.383466
      9          8           0        0.200219    1.724165   -0.530793
     10          8           0        1.021183   -0.815593   -0.036842
     11          1           0        0.626540    0.970350    1.759027
     12          1           0       -0.140954    1.619222   -1.419725
     13          6           0        2.415467   -0.727406   -0.215301
     14          1           0        2.789503   -1.713432   -0.496447
     15          1           0        2.918724   -0.415261    0.707769
     16          1           0        2.673773   -0.016168   -1.005560
 ---------------------------------------------------------------------

 SCF Done:  E(RPBE1PBE) =  -560.061233338     A.U. after   12 cycles

 The electronic state is 1-A.
 Alpha  occ. eigenvalues --  -66.25369 -19.20267 -19.19943 -10.26399 -10.21764
 Alpha  occ. eigenvalues --  -10.20970  -5.33031  -3.66558  -3.66445  -3.66301
 Alpha  occ. eigenvalues --   -1.04409  -1.02261  -0.78270  -0.70473  -0.64103
 Alpha  occ. eigenvalues --   -0.56703  -0.51132  -0.46800  -0.46592  -0.46015
 Alpha  occ. eigenvalues --   -0.43571  -0.40929  -0.39124  -0.37216  -0.36601
 Alpha  occ. eigenvalues --   -0.35688  -0.31833  -0.30460  -0.29682
 Alpha virt. eigenvalues --    0.02264   0.05571   0.06048   0.08005   0.08969
 Alpha virt. eigenvalues --    0.10190   0.10781   0.11478   0.12349   0.13511
 Alpha virt. eigenvalues --    0.14157   0.15256   0.15934   0.16437   0.19263

 Mulliken atomic charges:
              1
     1  H    0.130296
     2  C   -0.393155
     3  C   -0.305823
     4  H    0.106492
     5  H    0.142602
     6  H    0.121610
     7  Si   0.537512
     8  H    0.119097
     9  O   -0.526669
    10  O   -0.339895
    11  H   -0.064921
    12  H    0.317971
    13  C   -0.210105
    14  H    0.128539
    15  H    0.117376
    16  H    0.119073
 Sum of Mulliken atomic charges =   0.00000

 Dipole moment (field-independent basis, Debye):
    X=             -0.3505    Y=             -0.5735    Z=             -0.9194  Tot=              1.1389
 Quadrupole moment (field-independent basis, Debye-Ang):
   XX=            -41.2457   YY=            -49.2320   ZZ=            -42.8420
   XY=             -1.7387   XZ=             -0.2973   YZ=             -1.8329

 Normal termination of Gaussian 09 at Wed Aug  8 18:40:59 2018.
