 Gaussian 09, Revision C.01,
 Gaussian 09:  EM64L-G09RevC.01 23-Sep-2011

 --------------------------------------
 #SP PBE1PBE/Def2TZVP geom=connectivity
 --------------------------------------

 99/5=1,9=1/99;
 -------------
 Structure: 86
 -------------
 Charge =  0 Multiplicity = 1

                         Standard orientation:
 ---------------------------------------------------------------------
 Center     Atomic      Atomic             Coordinates (Angstroms)
 Number     Number       Type             X           Y           Z
 ---------------------------------------------------------------------
      1          1           0       -3.288985   -1.106791   -0.506679
      2          6           0       -2.280058   -0.716401   -0.662598
      3          6           0       -1.662523   -0.217422    0.643065
      4          1           0       -2.361137    0.084772   -1.403451
      5          1           0       -1.680350   -1.516015   -1.104386
      6          1           0       -2.278760    0.577319    1.077851
      7         14           0        0.072334    0.434080    0.475601
      8          1           0       -1.639984   -1.024383    1.383183
      9          8           0        0.353846    1.710796   -0.527759
     10          8           0        0.981080   -0.839942   -0.023513
     11          1           0        0.616952    0.978593    1.745900
     12          1           0        0.055551    1.634791   -1.435540
     13          6           0        2.378117   -0.786482   -0.194053
     14          1           0        2.730859   -1.784591   -0.459655
     15          1           0        2.882768   -0.473727    0.728049
     16          1           0        2.657782   -0.092084   -0.991982
 ---------------------------------------------------------------------

 SCF Done:  E(RPBE1PBE) =  -560.059900756     A.U. after   12 cycles

 The electronic state is 1-A.
 Alpha  occ. eigenvalues --  -66.25321 -19.20309 -19.19680 -10.26218 -10.21862
 Alpha  occ. eigenvalues --  -10.21293  -5.32987  -3.66526  -3.66395  -3.66253
 Alpha  occ. eigenvalues --   -1.04327  -1.02138  -0.78455  -0.70303  -0.64248
 Alpha  occ. eigenvalues --   -0.56738  -0.50968  -0.46651  -0.46502  -0.46111
 Alpha  occ. eigenvalues --   -0.43573  -0.40882  -0.39248  -0.37168  -0.36656
 Alpha  occ. eigenvalues --   -0.35722  -0.31678  -0.30508  -0.29565
 Alpha virt. eigenvalues --    0.02106   0.05605   0.06050   0.07982   0.08952
 Alpha virt. eigenvalues --    0.10201   0.10544   0.11695   0.12484   0.13559
 Alpha virt. eigenvalues --    0.14505   0.15152   0.15454   0.16250   0.19182

 Mulliken atomic charges:
              1
     1  H    0.130511
     2  C   -0.392085
     3  C   -0.306383
     4  H    0.109562
     5  H    0.143081
     6  H    0.122584
     7  Si   0.533749
     8  H    0.122917
     9  O   -0.523411
    10  O   -0.342182
    11  H   -0.069270
    12  H    0.315988
    13  C   -0.206039
    14  H    0.127754
    15  H    0.116724
    16  H    0.116499
 Sum of Mulliken atomic charges =   0.00000

 Dipole moment (field-independent basis, Debye):
    X=             -0.5630    Y=             -0.5335    Z=             -1.0103  Tot=              1.2737
 Quadrupole moment (field-independent basis, Debye-Ang):
   XX=            -41.4735   YY=            -49.0352   ZZ=            -42.7954
   XY=             -1.9956   XZ=             -0.6119   YZ=             -2.0534

 Normal termination of Gaussian 09 at Wed Aug  8 19:44:29 2018.
