 Gaussian 09, Revision C.01,
 Gaussian 09:  EM64L-G09RevC.01 23-Sep-2011

 --------------------------------------
 #SP PBE1PBE/Def2TZVP geom=connectivity
 --------------------------------------

 99/5=1,9=1/99;
 -------------
 Structure: 80
 -------------
 Charge =  0 Multiplicity = 1

                         Standard orientation:
 ---------------------------------------------------------------------
 Center     Atomic      Atomic             Coordinates (Angstroms)
 Number     Number       Type             X           Y           Z
 ---------------------------------------------------------------------
      1          1           0       -3.270061   -1.135917   -0.503688
      2          6           0       -2.265494   -0.734425   -0.659562
      3          6           0       -1.649444   -0.238281    0.647882
      4          1           0       -2.356536    0.070962   -1.394665
      5          1           0       -1.659047   -1.524970   -1.108416
      6          1           0       -2.272390    0.547275    1.089745
      7         14           0        0.078385    0.431622    0.480360
      8          1           0       -1.616883   -1.050035    1.382365
      9          8           0        0.287634    1.718789   -0.528432
     10          8           0        0.998421   -0.829821   -0.029897
     11          1           0        0.620972    0.972812    1.752945
     12          1           0       -0.028320    1.631679   -1.428711
     13          6           0        2.394393   -0.761263   -0.203728
     14          1           0        2.756336   -1.753961   -0.477120
     15          1           0        2.898385   -0.449824    0.719179
     16          1           0        2.664983   -0.058654   -0.997587
 ---------------------------------------------------------------------

 SCF Done:  E(RPBE1PBE) =  -560.060673663     A.U. after   12 cycles

 The electronic state is 1-A.
 Alpha  occ. eigenvalues --  -66.25344 -19.20292 -19.19795 -10.26298 -10.21818
 Alpha  occ. eigenvalues --  -10.21155  -5.33007  -3.66540  -3.66417  -3.66275
 Alpha  occ. eigenvalues --   -1.04359  -1.02195  -0.78375  -0.70378  -0.64185
 Alpha  occ. eigenvalues --   -0.56726  -0.51040  -0.46714  -0.46537  -0.46071
 Alpha  occ. eigenvalues --   -0.43572  -0.40900  -0.39190  -0.37191  -0.36629
 Alpha  occ. eigenvalues --   -0.35715  -0.31741  -0.30489  -0.29629
 Alpha virt. eigenvalues --    0.02187   0.05597   0.06053   0.07990   0.08959
 Alpha virt. eigenvalues --    0.10205   0.10647   0.11602   0.12428   0.13540
 Alpha virt. eigenvalues --    0.14357   0.15271   0.15592   0.16313   0.19213

 Mulliken atomic charges:
              1
     1  H    0.130415
     2  C   -0.392560
     3  C   -0.306084
     4  H    0.108324
     5  H    0.142837
     6  H    0.122156
     7  Si   0.535483
     8  H    0.121280
     9  O   -0.525130
    10  O   -0.341181
    11  H   -0.067352
    12  H    0.316880
    13  C   -0.207838
    14  H    0.128104
    15  H    0.117005
    16  H    0.117659
 Sum of Mulliken atomic charges =   0.00000

 Dipole moment (field-independent basis, Debye):
    X=             -0.4707    Y=             -0.5527    Z=             -0.9706  Tot=              1.2121
 Quadrupole moment (field-independent basis, Debye-Ang):
   XX=            -41.3778   YY=            -49.1210   ZZ=            -42.8106
   XY=             -1.8878   XZ=             -0.4778   YZ=             -1.9671

 Normal termination of Gaussian 09 at Wed Aug  8 19:18:35 2018.
