 Gaussian 09, Revision C.01,
 Gaussian 09:  EM64L-G09RevC.01 23-Sep-2011

 --------------------------------------
 #SP PBE1PBE/Def2TZVP geom=connectivity
 --------------------------------------

 99/5=1,9=1/99;
 -------------
 Structure: 88
 -------------
 Charge =  0 Multiplicity = 1

                         Standard orientation:
 ---------------------------------------------------------------------
 Center     Atomic      Atomic             Coordinates (Angstroms)
 Number     Number       Type             X           Y           Z
 ---------------------------------------------------------------------
      1          1           0       -3.294999   -1.097301   -0.507835
      2          6           0       -2.284697   -0.710454   -0.663680
      3          6           0       -1.666696   -0.210765    0.641491
      4          1           0       -2.362579    0.089448   -1.406247
      5          1           0       -1.687165   -1.512885   -1.103304
      6          1           0       -2.280767    0.586831    1.074109
      7         14           0        0.070375    0.434851    0.474196
      8          1           0       -1.647372   -1.016270    1.383284
      9          8           0        0.374966    1.708029   -0.527578
     10          8           0        0.975479   -0.843089   -0.021512
     11          1           0        0.615635    0.980233    1.743846
     12          1           0        0.084161    1.634641   -1.437745
     13          6           0        2.372826   -0.794438   -0.190949
     14          1           0        2.722607   -1.794212   -0.454194
     15          1           0        2.877678   -0.481400    0.730946
     16          1           0        2.655393   -0.102578   -0.990059
 ---------------------------------------------------------------------

 SCF Done:  E(RPBE1PBE) =  -560.059596081     A.U. after   12 cycles

 The electronic state is 1-A.
 Alpha  occ. eigenvalues --  -66.25323 -19.20305 -19.19647 -10.26195 -10.21876
 Alpha  occ. eigenvalues --  -10.21338  -5.32989  -3.66529  -3.66396  -3.66253
 Alpha  occ. eigenvalues --   -1.04317  -1.02115  -0.78481  -0.70282  -0.64269
 Alpha  occ. eigenvalues --   -0.56738  -0.50946  -0.46633  -0.46495  -0.46120
 Alpha  occ. eigenvalues --   -0.43574  -0.40879  -0.39257  -0.37160  -0.36664
 Alpha  occ. eigenvalues --   -0.35717  -0.31662  -0.30513  -0.29544
 Alpha virt. eigenvalues --    0.02083   0.05601   0.06047   0.07978   0.08950
 Alpha virt. eigenvalues --    0.10197   0.10510   0.11721   0.12502   0.13566
 Alpha virt. eigenvalues --    0.14538   0.15079   0.15451   0.16231   0.19170

 Mulliken atomic charges:
              1
     1  H    0.130537
     2  C   -0.391965
     3  C   -0.306373
     4  H    0.110005
     5  H    0.143146
     6  H    0.122724
     7  Si   0.533371
     8  H    0.123430
     9  O   -0.523125
    10  O   -0.342482
    11  H   -0.069784
    12  H    0.315587
    13  C   -0.205460
    14  H    0.127649
    15  H    0.116642
    16  H    0.116098
 Sum of Mulliken atomic charges =   0.00000

 Dipole moment (field-independent basis, Debye):
    X=             -0.5896    Y=             -0.5298    Z=             -1.0212  Tot=              1.2927
 Quadrupole moment (field-independent basis, Debye-Ang):
   XX=            -41.5016   YY=            -49.0156   ZZ=            -42.7888
   XY=             -2.0251   XZ=             -0.6593   YZ=             -2.0754

 Normal termination of Gaussian 09 at Wed Aug  8 19:54:15 2018.
