 Gaussian 09, Revision C.01,
 Gaussian 09:  EM64L-G09RevC.01 23-Sep-2011

 --------------------------------------
 #SP PBE1PBE/Def2TZVP geom=connectivity
 --------------------------------------

 99/5=1,9=1/99;
 -------------
 Structure: 82
 -------------
 Charge =  0 Multiplicity = 1

                         Standard orientation:
 ---------------------------------------------------------------------
 Center     Atomic      Atomic             Coordinates (Angstroms)
 Number     Number       Type             X           Y           Z
 ---------------------------------------------------------------------
      1          1           0       -3.276487   -1.126133   -0.504739
      2          6           0       -2.270431   -0.728390   -0.660621
      3          6           0       -1.653878   -0.231345    0.646243
      4          1           0       -2.358096    0.075619   -1.397641
      5          1           0       -1.666256   -1.522000   -1.107126
      6          1           0       -2.274562    0.557315    1.085752
      7         14           0        0.076352    0.432339    0.478751
      8          1           0       -1.624715   -1.041525    1.382603
      9          8           0        0.309992    1.716641   -0.528039
     10          8           0        0.992579   -0.833363   -0.027799
     11          1           0        0.619626    0.974599    1.750588
     12          1           0       -0.000230    1.633609   -1.430868
     13          6           0        2.388929   -0.769914   -0.200527
     14          1           0        2.747763   -1.764448   -0.471329
     15          1           0        2.893145   -0.458071    0.722122
     16          1           0        2.662600   -0.070036   -0.995741
 ---------------------------------------------------------------------

 SCF Done:  E(RPBE1PBE) =  -560.060445787     A.U. after   12 cycles

 The electronic state is 1-A.
 Alpha  occ. eigenvalues --  -66.25336 -19.20299 -19.19758 -10.26272 -10.21833
 Alpha  occ. eigenvalues --  -10.21202  -5.33000  -3.66535  -3.66410  -3.66268
 Alpha  occ. eigenvalues --   -1.04348  -1.02177  -0.78402  -0.70353  -0.64206
 Alpha  occ. eigenvalues --   -0.56730  -0.51016  -0.46693  -0.46524  -0.46085
 Alpha  occ. eigenvalues --   -0.43573  -0.40893  -0.39211  -0.37183  -0.36638
 Alpha  occ. eigenvalues --   -0.35719  -0.31719  -0.30497  -0.29609
 Alpha virt. eigenvalues --    0.02160   0.05602   0.06053   0.07987   0.08957
 Alpha virt. eigenvalues --    0.10204   0.10612   0.11634   0.12447   0.13546
 Alpha virt. eigenvalues --    0.14410   0.15254   0.15519   0.16289   0.19202

 Mulliken atomic charges:
              1
     1  H    0.130448
     2  C   -0.392389
     3  C   -0.306196
     4  H    0.108747
     5  H    0.142915
     6  H    0.122307
     7  Si   0.534897
     8  H    0.121839
     9  O   -0.524561
    10  O   -0.341514
    11  H   -0.068020
    12  H    0.316577
    13  C   -0.207242
    14  H    0.127990
    15  H    0.116917
    16  H    0.117284
 Sum of Mulliken atomic charges =   0.00000

 Dipole moment (field-independent basis, Debye):
    X=             -0.5022    Y=             -0.5468    Z=             -0.9844  Tot=              1.2330
 Quadrupole moment (field-independent basis, Debye-Ang):
   XX=            -41.4099   YY=            -49.0922   ZZ=            -42.8060
   XY=             -1.9260   XZ=             -0.5228   YZ=             -1.9986

 Normal termination of Gaussian 09 at Wed Aug  8 19:26:29 2018.
