 Gaussian 09, Revision C.01,
 Gaussian 09:  EM64L-G09RevC.01 23-Sep-2011

 --------------------------------------
 #SP PBE1PBE/Def2TZVP geom=connectivity
 --------------------------------------

 99/5=1,9=1/99;
 -------------
 Structure: 84
 -------------
 Charge =  0 Multiplicity = 1

                         Standard orientation:
 ---------------------------------------------------------------------
 Center     Atomic      Atomic             Coordinates (Angstroms)
 Number     Number       Type             X           Y           Z
 ---------------------------------------------------------------------
      1          1           0       -3.282848   -1.116104   -0.506218
      2          6           0       -2.275320   -0.722028   -0.661909
      3          6           0       -1.658288   -0.224658    0.644605
      4          1           0       -2.359614    0.080916   -1.400481
      5          1           0       -1.673410   -1.518481   -1.106405
      6          1           0       -2.276718    0.566888    1.082100
      7         14           0        0.074313    0.432904    0.477480
      8          1           0       -1.632516   -1.033578    1.382476
      9          8           0        0.332250    1.714454   -0.527662
     10          8           0        0.986743   -0.836795   -0.025912
     11          1           0        0.618251    0.975671    1.748817
     12          1           0        0.028191    1.634943   -1.432926
     13          6           0        2.383454   -0.778353   -0.197479
     14          1           0        2.739190   -1.774582   -0.466129
     15          1           0        2.887876   -0.466511    0.725058
     16          1           0        2.660197   -0.080859   -0.993724
 ---------------------------------------------------------------------

 SCF Done:  E(RPBE1PBE) =  -560.060189733     A.U. after   12 cycles

 The electronic state is 1-A.
 Alpha  occ. eigenvalues --  -66.25337 -19.20300 -19.19722 -10.26246 -10.21848
 Alpha  occ. eigenvalues --  -10.21251  -5.33001  -3.66537  -3.66409  -3.66267
 Alpha  occ. eigenvalues --   -1.04334  -1.02151  -0.78431  -0.70330  -0.64229
 Alpha  occ. eigenvalues --   -0.56724  -0.50990  -0.46673  -0.46514  -0.46099
 Alpha  occ. eigenvalues --   -0.43575  -0.40890  -0.39222  -0.37176  -0.36645
 Alpha  occ. eigenvalues --   -0.35715  -0.31699  -0.30506  -0.29591
 Alpha virt. eigenvalues --    0.02135   0.05601   0.06051   0.07983   0.08954
 Alpha virt. eigenvalues --    0.10202   0.10576   0.11662   0.12465   0.13553
 Alpha virt. eigenvalues --    0.14453   0.15215   0.15471   0.16267   0.19190

 Mulliken atomic charges:
              1
     1  H    0.130483
     2  C   -0.392242
     3  C   -0.306221
     4  H    0.109196
     5  H    0.142995
     6  H    0.122463
     7  Si   0.534418
     8  H    0.122395
     9  O   -0.524310
    10  O   -0.341815
    11  H   -0.068563
    12  H    0.316227
    13  C   -0.206646
    14  H    0.127876
    15  H    0.116820
    16  H    0.116925
 Sum of Mulliken atomic charges =   0.00000

 Dipole moment (field-independent basis, Debye):
    X=             -0.5331    Y=             -0.5430    Z=             -0.9952  Tot=              1.2528
 Quadrupole moment (field-independent basis, Debye-Ang):
   XX=            -41.4400   YY=            -49.0693   ZZ=            -42.8005
   XY=             -1.9620   XZ=             -0.5681   YZ=             -2.0246

 Normal termination of Gaussian 09 at Wed Aug  8 19:35:36 2018.
