 Gaussian 09, Revision C.01,
 Gaussian 09:  EM64L-G09RevC.01 23-Sep-2011

 --------------------------------------
 #SP PBE1PBE/Def2TZVP geom=connectivity
 --------------------------------------

 99/5=1,9=1/99;
 -------------
 Structure: 85
 -------------
 Charge =  0 Multiplicity = 1

                         Standard orientation:
 ---------------------------------------------------------------------
 Center     Atomic      Atomic             Coordinates (Angstroms)
 Number     Number       Type             X           Y           Z
 ---------------------------------------------------------------------
      1          1           0       -3.285866   -1.111518   -0.506535
      2          6           0       -2.277647   -0.719242   -0.662301
      3          6           0       -1.660363   -0.221219    0.643845
      4          1           0       -2.360358    0.082911   -1.401912
      5          1           0       -1.676823   -1.517208   -1.105551
      6          1           0       -2.277712    0.571857    1.080093
      7         14           0        0.073352    0.433374    0.476615
      8          1           0       -1.636182   -1.029255    1.382738
      9          8           0        0.342852    1.713111   -0.527567
     10          8           0        0.983966   -0.838405   -0.024810
     11          1           0        0.617629    0.976865    1.747497
     12          1           0        0.041358    1.634728   -1.434427
     13          6           0        2.380840   -0.782401   -0.195872
     14          1           0        2.735100   -1.779531   -0.463128
     15          1           0        2.885377   -0.470208    0.726483
     16          1           0        2.659021   -0.086346   -0.992874
 ---------------------------------------------------------------------

 SCF Done:  E(RPBE1PBE) =  -560.060052984     A.U. after   12 cycles

 The electronic state is 1-A.
 Alpha  occ. eigenvalues --  -66.25332 -19.20308 -19.19704 -10.26234 -10.21856
 Alpha  occ. eigenvalues --  -10.21273  -5.32997  -3.66534  -3.66405  -3.66263
 Alpha  occ. eigenvalues --   -1.04326  -1.02135  -0.78444  -0.70318  -0.64239
 Alpha  occ. eigenvalues --   -0.56716  -0.50977  -0.46663  -0.46509  -0.46106
 Alpha  occ. eigenvalues --   -0.43575  -0.40887  -0.39233  -0.37171  -0.36650
 Alpha  occ. eigenvalues --   -0.35715  -0.31690  -0.30509  -0.29580
 Alpha virt. eigenvalues --    0.02117   0.05602   0.06049   0.07981   0.08952
 Alpha virt. eigenvalues --    0.10200   0.10559   0.11677   0.12474   0.13555
 Alpha virt. eigenvalues --    0.14477   0.15184   0.15459   0.16257   0.19185

 Mulliken atomic charges:
              1
     1  H    0.130501
     2  C   -0.392178
     3  C   -0.306265
     4  H    0.109383
     5  H    0.143039
     6  H    0.122537
     7  Si   0.534053
     8  H    0.122657
     9  O   -0.524031
    10  O   -0.341975
    11  H   -0.068876
    12  H    0.316173
    13  C   -0.206354
    14  H    0.127820
    15  H    0.116780
    16  H    0.116736
 Sum of Mulliken atomic charges =   0.00000

 Dipole moment (field-independent basis, Debye):
    X=             -0.5480    Y=             -0.5406    Z=             -1.0022  Tot=              1.2637
 Quadrupole moment (field-independent basis, Debye-Ang):
   XX=            -41.4553   YY=            -49.0588   ZZ=            -42.7977
   XY=             -1.9794   XZ=             -0.5891   YZ=             -2.0372

 Normal termination of Gaussian 09 at Wed Aug  8 19:40:14 2018.
