 Gaussian 09, Revision C.01,
 Gaussian 09:  EM64L-G09RevC.01 23-Sep-2011

 --------------------------------------
 #SP PBE1PBE/Def2TZVP geom=connectivity
 --------------------------------------

 99/5=1,9=1/99;
 -------------
 Structure: 87
 -------------
 Charge =  0 Multiplicity = 1

                         Standard orientation:
 ---------------------------------------------------------------------
 Center     Atomic      Atomic             Coordinates (Angstroms)
 Number     Number       Type             X           Y           Z
 ---------------------------------------------------------------------
      1          1           0       -3.291983   -1.101936   -0.507461
      2          6           0       -2.282366   -0.713281   -0.663250
      3          6           0       -1.664619   -0.214213    0.642279
      4          1           0       -2.361839    0.087410   -1.404797
      5          1           0       -1.683735   -1.514212   -1.104113
      6          1           0       -2.279784    0.581866    1.076136
      7         14           0        0.071347    0.434389    0.475055
      8          1           0       -1.643695   -1.020600    1.383070
      9          8           0        0.364375    1.709453   -0.527738
     10          8           0        0.978286   -0.841488   -0.022606
     11          1           0        0.616265    0.979078    1.745150
     12          1           0        0.070058    1.634599   -1.436159
     13          6           0        2.375483   -0.790392   -0.192566
     14          1           0        2.726753   -1.789280   -0.457189
     15          1           0        2.880219   -0.477682    0.729505
     16          1           0        2.656608   -0.097096   -0.990939
 ---------------------------------------------------------------------

 SCF Done:  E(RPBE1PBE) =  -560.059753944     A.U. after   12 cycles

 The electronic state is 1-A.
 Alpha  occ. eigenvalues --  -66.25325 -19.20301 -19.19664 -10.26207 -10.21869
 Alpha  occ. eigenvalues --  -10.21317  -5.32991  -3.66530  -3.66398  -3.66255
 Alpha  occ. eigenvalues --   -1.04325  -1.02133  -0.78469  -0.70293  -0.64260
 Alpha  occ. eigenvalues --   -0.56743  -0.50958  -0.46643  -0.46499  -0.46116
 Alpha  occ. eigenvalues --   -0.43574  -0.40883  -0.39252  -0.37165  -0.36660
 Alpha  occ. eigenvalues --   -0.35719  -0.31671  -0.30511  -0.29555
 Alpha virt. eigenvalues --    0.02100   0.05602   0.06049   0.07979   0.08953
 Alpha virt. eigenvalues --    0.10199   0.10527   0.11707   0.12493   0.13564
 Alpha virt. eigenvalues --    0.14519   0.15121   0.15450   0.16240   0.19176

 Mulliken atomic charges:
              1
     1  H    0.130526
     2  C   -0.392034
     3  C   -0.306360
     4  H    0.109804
     5  H    0.143113
     6  H    0.122656
     7  Si   0.533585
     8  H    0.123175
     9  O   -0.523250
    10  O   -0.342325
    11  H   -0.069491
    12  H    0.315665
    13  C   -0.205756
    14  H    0.127703
    15  H    0.116679
    16  H    0.116310
 Sum of Mulliken atomic charges =   0.00000

 Dipole moment (field-independent basis, Debye):
    X=             -0.5762    Y=             -0.5325    Z=             -1.0141  Tot=              1.2821
 Quadrupole moment (field-independent basis, Debye-Ang):
   XX=            -41.4863   YY=            -49.0268   ZZ=            -42.7931
   XY=             -2.0097   XZ=             -0.6357   YZ=             -2.0616

 Normal termination of Gaussian 09 at Wed Aug  8 19:49:40 2018.
