 Gaussian 09, Revision C.01,
 Gaussian 09:  EM64L-G09RevC.01 23-Sep-2011

 --------------------------------------
 #SP PBE1PBE/Def2TZVP geom=connectivity
 --------------------------------------

 99/5=1,9=1/99;
 -------------
 Structure: 83
 -------------
 Charge =  0 Multiplicity = 1

                         Standard orientation:
 ---------------------------------------------------------------------
 Center     Atomic      Atomic             Coordinates (Angstroms)
 Number     Number       Type             X           Y           Z
 ---------------------------------------------------------------------
      1          1           0       -3.279515   -1.121267   -0.505585
      2          6           0       -2.272755   -0.725247   -0.661312
      3          6           0       -1.655994   -0.228213    0.645457
      4          1           0       -2.358807    0.078351   -1.398970
      5          1           0       -1.669649   -1.520154   -1.106954
      6          1           0       -2.275614    0.561765    1.084101
      7         14           0        0.075368    0.432583    0.478248
      8          1           0       -1.628453   -1.037889    1.382434
      9          8           0        0.320549    1.715435   -0.527922
     10          8           0        0.989800   -0.834957   -0.026949
     11          1           0        0.618939    0.974923    1.749924
     12          1           0        0.013900    1.634584   -1.431563
     13          6           0        2.386326   -0.773866   -0.199098
     14          1           0        2.743692   -1.769174   -0.468999
     15          1           0        2.890627   -0.462141    0.723544
     16          1           0        2.661470   -0.075019   -0.994711
 ---------------------------------------------------------------------

 SCF Done:  E(RPBE1PBE) =  -560.060328945     A.U. after   12 cycles

 The electronic state is 1-A.
 Alpha  occ. eigenvalues --  -66.25337 -19.20293 -19.19740 -10.26259 -10.21839
 Alpha  occ. eigenvalues --  -10.21224  -5.33001  -3.66537  -3.66410  -3.66268
 Alpha  occ. eigenvalues --   -1.04344  -1.02172  -0.78415  -0.70342  -0.64217
 Alpha  occ. eigenvalues --   -0.56739  -0.51006  -0.46683  -0.46519  -0.46091
 Alpha  occ. eigenvalues --   -0.43573  -0.40892  -0.39214  -0.37181  -0.36641
 Alpha  occ. eigenvalues --   -0.35719  -0.31710  -0.30500  -0.29600
 Alpha virt. eigenvalues --    0.02155   0.05602   0.06053   0.07985   0.08957
 Alpha virt. eigenvalues --    0.10205   0.10596   0.11648   0.12456   0.13551
 Alpha virt. eigenvalues --    0.14430   0.15241   0.15494   0.16279   0.19197

 Mulliken atomic charges:
              1
     1  H    0.130460
     2  C   -0.392317
     3  C   -0.306206
     4  H    0.108975
     5  H    0.142945
     6  H    0.122370
     7  Si   0.534760
     8  H    0.122097
     9  O   -0.524411
    10  O   -0.341664
    11  H   -0.068269
    12  H    0.316318
    13  C   -0.206959
    14  H    0.127935
    15  H    0.116865
    16  H    0.117101
 Sum of Mulliken atomic charges =   0.00000

 Dipole moment (field-independent basis, Debye):
    X=             -0.5161    Y=             -0.5439    Z=             -0.9891  Tot=              1.2412
 Quadrupole moment (field-independent basis, Debye-Ang):
   XX=            -41.4247   YY=            -49.0778   ZZ=            -42.8030
   XY=             -1.9417   XZ=             -0.5456   YZ=             -2.0117

 Normal termination of Gaussian 09 at Wed Aug  8 19:30:59 2018.
