 Gaussian 09, Revision C.01,
 Gaussian 09:  EM64L-G09RevC.01 23-Sep-2011

 --------------------------------------
 #SP PBE1PBE/Def2TZVP geom=connectivity
 --------------------------------------

 99/5=1,9=1/99;
 -------------
 Structure: 81
 -------------
 Charge =  0 Multiplicity = 1

                         Standard orientation:
 ---------------------------------------------------------------------
 Center     Atomic      Atomic             Coordinates (Angstroms)
 Number     Number       Type             X           Y           Z
 ---------------------------------------------------------------------
      1          1           0       -3.273423   -1.130754   -0.504333
      2          6           0       -2.268075   -0.731206   -0.660166
      3          6           0       -1.651763   -0.234741    0.647032
      4          1           0       -2.357349    0.073547   -1.396180
      5          1           0       -1.662816   -1.523305   -1.107883
      6          1           0       -2.273526    0.552390    1.087755
      7         14           0        0.077325    0.431927    0.479602
      8          1           0       -1.620980   -1.045759    1.382405
      9          8           0        0.299355    1.717906   -0.528181
     10          8           0        0.995371   -0.831688   -0.028862
     11          1           0        0.620272    0.973530    1.751858
     12          1           0       -0.014027    1.632184   -1.430081
     13          6           0        2.391543   -0.765785   -0.202110
     14          1           0        2.751860   -1.759414   -0.474261
     15          1           0        2.895651   -0.454241    0.720699
     16          1           0        2.663747   -0.064511   -0.996597
 ---------------------------------------------------------------------

 SCF Done:  E(RPBE1PBE) =  -560.060558910     A.U. after   12 cycles

 The electronic state is 1-A.
 Alpha  occ. eigenvalues --  -66.25342 -19.20300 -19.19777 -10.26285 -10.21827
 Alpha  occ. eigenvalues --  -10.21181  -5.33005  -3.66539  -3.66415  -3.66273
 Alpha  occ. eigenvalues --   -1.04350  -1.02177  -0.78390  -0.70366  -0.64197
 Alpha  occ. eigenvalues --   -0.56714  -0.51025  -0.46703  -0.46531  -0.46079
 Alpha  occ. eigenvalues --   -0.43574  -0.40897  -0.39201  -0.37186  -0.36633
 Alpha  occ. eigenvalues --   -0.35715  -0.31730  -0.30495  -0.29620
 Alpha virt. eigenvalues --    0.02168   0.05599   0.06052   0.07988   0.08956
 Alpha virt. eigenvalues --    0.10204   0.10628   0.11617   0.12437   0.13542
 Alpha virt. eigenvalues --    0.14383   0.15263   0.15550   0.16299   0.19207

 Mulliken atomic charges:
              1
     1  H    0.130438
     2  C   -0.392489
     3  C   -0.306118
     4  H    0.108548
     5  H    0.142885
     6  H    0.122247
     7  Si   0.535101
     8  H    0.121579
     9  O   -0.524935
    10  O   -0.341342
    11  H   -0.067668
    12  H    0.316796
    13  C   -0.207529
    14  H    0.128046
    15  H    0.116960
    16  H    0.117482
 Sum of Mulliken atomic charges =   0.00000

 Dipole moment (field-independent basis, Debye):
    X=             -0.4877    Y=             -0.5515    Z=             -0.9771  Tot=              1.2234
 Quadrupole moment (field-independent basis, Debye-Ang):
   XX=            -41.3938   YY=            -49.1116   ZZ=            -42.8080
   XY=             -1.9085   XZ=             -0.5003   YZ=             -1.9810

 Normal termination of Gaussian 09 at Wed Aug  8 19:22:31 2018.
