 Gaussian 09, Revision C.01,
 Gaussian 09:  EM64L-G09RevC.01 23-Sep-2011

 --------------------------------------
 #SP PBE1PBE/Def2TZVP geom=connectivity
 --------------------------------------

 99/5=1,9=1/99;
 -------------
 Structure: 89
 -------------
 Charge =  0 Multiplicity = 1

                         Standard orientation:
 ---------------------------------------------------------------------
 Center     Atomic      Atomic             Coordinates (Angstroms)
 Number     Number       Type             X           Y           Z
 ---------------------------------------------------------------------
      1          1           0       -3.298009   -1.092692   -0.508170
      2          6           0       -2.287025   -0.707662   -0.664091
      3          6           0       -1.668767   -0.207286    0.640695
      4          1           0       -2.363319    0.091409   -1.407716
      5          1           0       -1.690595   -1.511612   -1.102435
      6          1           0       -2.281741    0.591846    1.072033
      7         14           0        0.069405    0.435335    0.473296
      8          1           0       -1.651039   -1.011868    1.383530
      9          8           0        0.385549    1.706549   -0.527512
     10          8           0        0.972668   -0.844685   -0.020394
     11          1           0        0.615009    0.981476    1.742472
     12          1           0        0.098331    1.634777   -1.438449
     13          6           0        2.370161   -0.798487   -0.189311
     14          1           0        2.718452   -1.799157   -0.451126
     15          1           0        2.875131   -0.485073    0.732393
     16          1           0        2.654167   -0.108107   -0.989190
 ---------------------------------------------------------------------

 SCF Done:  E(RPBE1PBE) =  -560.059428926     A.U. after   12 cycles

 The electronic state is 1-A.
 Alpha  occ. eigenvalues --  -66.25322 -19.20301 -19.19630 -10.26183 -10.21882
 Alpha  occ. eigenvalues --  -10.21361  -5.32988  -3.66529  -3.66395  -3.66252
 Alpha  occ. eigenvalues --   -1.04315  -1.02111  -0.78494  -0.70272  -0.64280
 Alpha  occ. eigenvalues --   -0.56745  -0.50937  -0.46625  -0.46492  -0.46125
 Alpha  occ. eigenvalues --   -0.43574  -0.40877  -0.39264  -0.37156  -0.36668
 Alpha  occ. eigenvalues --   -0.35716  -0.31655  -0.30515  -0.29532
 Alpha virt. eigenvalues --    0.02072   0.05600   0.06046   0.07977   0.08951
 Alpha virt. eigenvalues --    0.10195   0.10494   0.11735   0.12511   0.13570
 Alpha virt. eigenvalues --    0.14555   0.15043   0.15453   0.16222   0.19165

 Mulliken atomic charges:
              1
     1  H    0.130549
     2  C   -0.391886
     3  C   -0.306402
     4  H    0.110215
     5  H    0.143180
     6  H    0.122796
     7  Si   0.533184
     8  H    0.123689
     9  O   -0.522831
    10  O   -0.342637
    11  H   -0.070090
    12  H    0.315303
    13  C   -0.205168
    14  H    0.127597
    15  H    0.116606
    16  H    0.115894
 Sum of Mulliken atomic charges =   0.00000

 Dipole moment (field-independent basis, Debye):
    X=             -0.6033    Y=             -0.5273    Z=             -1.0272  Tot=              1.3028
 Quadrupole moment (field-independent basis, Debye-Ang):
   XX=            -41.5150   YY=            -49.0032   ZZ=            -42.7876
   XY=             -2.0407   XZ=             -0.6828   YZ=             -2.0874

 Normal termination of Gaussian 09 at Wed Aug  8 19:58:56 2018.
