 Gaussian 09, Revision C.01,
 Gaussian 09:  EM64L-G09RevC.01 23-Sep-2011

 --------------------------------------
 #SP PBE1PBE/Def2TZVP geom=connectivity
 --------------------------------------

 99/5=1,9=1/99;
 ------------
 Structure: 8
 ------------
 Charge =  0 Multiplicity = 1

                         Standard orientation:
 ---------------------------------------------------------------------
 Center     Atomic      Atomic             Coordinates (Angstroms)
 Number     Number       Type             X           Y           Z
 ---------------------------------------------------------------------
      1          1           0       -3.043196   -1.454399   -0.342315
      2          6           0       -2.092408   -0.956283   -0.548550
      3          6           0       -1.487359   -0.353388    0.718541
      4          1           0       -2.292923   -0.190906   -1.304397
      5          1           0       -1.421956   -1.694654   -0.995220
      6          1           0       -2.173924    0.378062    1.159007
      7         14           0        0.153603    0.486341    0.464919
      8          1           0       -1.344317   -1.131198    1.476181
      9          8           0       -0.466925    1.565898   -0.615185
     10          8           0        1.183150   -0.689609   -0.040295
     11          1           0        0.679702    1.125153    1.698573
     12          1           0       -0.943481    1.213476   -1.368601
     13          6           0        2.557348   -0.482333   -0.268925
     14          1           0        3.012106   -1.440938   -0.524788
     15          1           0        3.057230   -0.088114    0.624087
     16          1           0        2.725035    0.216451   -1.093953
 ---------------------------------------------------------------------

 SCF Done:  E(RPBE1PBE) =  -560.043588571     A.U. after   13 cycles

 The electronic state is 1-A.
 Alpha  occ. eigenvalues --  -66.25776 -19.21081 -19.19424 -10.27159 -10.21441
 Alpha  occ. eigenvalues --  -10.19320  -5.33424  -3.66944  -3.66876  -3.66656
 Alpha  occ. eigenvalues --   -1.05029  -1.02174  -0.77406  -0.71220  -0.63547
 Alpha  occ. eigenvalues --   -0.56334  -0.51787  -0.47541  -0.47185  -0.45807
 Alpha  occ. eigenvalues --   -0.43496  -0.41430  -0.38271  -0.37093  -0.36368
 Alpha  occ. eigenvalues --   -0.34937  -0.32625  -0.30963  -0.28020
 Alpha virt. eigenvalues --    0.01909   0.04835   0.05723   0.07816   0.09044
 Alpha virt. eigenvalues --    0.09337   0.11044   0.11688   0.11912   0.12983
 Alpha virt. eigenvalues --    0.13663   0.15080   0.16767   0.18241   0.20280

 Mulliken atomic charges:
              1
     1  H    0.129088
     2  C   -0.392807
     3  C   -0.307387
     4  H    0.085740
     5  H    0.142518
     6  H    0.116325
     7  Si   0.551523
     8  H    0.098125
     9  O   -0.521201
    10  O   -0.331111
    11  H   -0.040930
    12  H    0.316053
    13  C   -0.223182
    14  H    0.132102
    15  H    0.120196
    16  H    0.124947
 Sum of Mulliken atomic charges =   0.00000

 Dipole moment (field-independent basis, Debye):
    X=              0.7445    Y=             -0.5676    Z=             -0.5299  Tot=              1.0758
 Quadrupole moment (field-independent basis, Debye-Ang):
   XX=            -40.2543   YY=            -49.6955   ZZ=            -43.4579
   XY=              0.0490   XZ=              0.7174   YZ=              0.0580

 Normal termination of Gaussian 09 at Wed Aug  8 20:04:01 2018.
