 Gaussian 09, Revision C.01,
 Gaussian 09:  EM64L-G09RevC.01 23-Sep-2011

 --------------------------------------
 #SP PBE1PBE/Def2TZVP geom=connectivity
 --------------------------------------

 99/5=1,9=1/99;
 -------------
 Structure: 90
 -------------
 Charge =  0 Multiplicity = 1

                         Standard orientation:
 ---------------------------------------------------------------------
 Center     Atomic      Atomic             Coordinates (Angstroms)
 Number     Number       Type             X           Y           Z
 ---------------------------------------------------------------------
      1          1           0       -3.301080   -1.087976   -0.508338
      2          6           0       -2.289408   -0.704814   -0.664397
      3          6           0       -1.670890   -0.203520    0.639914
      4          1           0       -2.364094    0.093285   -1.409229
      5          1           0       -1.694097   -1.510372   -1.101305
      6          1           0       -2.282750    0.597238    1.069816
      7         14           0        0.068390    0.436039    0.472306
      8          1           0       -1.654779   -1.007035    1.383939
      9          8           0        0.396488    1.704153   -0.527586
     10          8           0        0.969787   -0.846167   -0.019118
     11          1           0        0.614344    0.983163    1.740908
     12          1           0        0.112427    1.634518   -1.440431
     13          6           0        2.367424   -0.802481   -0.187510
     14          1           0        2.714204   -1.804097   -0.447706
     15          1           0        2.872513   -0.488528    0.733945
     16          1           0        2.652885   -0.113739   -0.988284
 ---------------------------------------------------------------------

 SCF Done:  E(RPBE1PBE) =  -560.059246064     A.U. after   12 cycles

 The electronic state is 1-A.
 Alpha  occ. eigenvalues --  -66.25313 -19.20309 -19.19606 -10.26168 -10.21888
 Alpha  occ. eigenvalues --  -10.21380  -5.32980  -3.66523  -3.66386  -3.66243
 Alpha  occ. eigenvalues --   -1.04307  -1.02092  -0.78505  -0.70257  -0.64288
 Alpha  occ. eigenvalues --   -0.56749  -0.50922  -0.46613  -0.46485  -0.46128
 Alpha  occ. eigenvalues --   -0.43571  -0.40873  -0.39272  -0.37151  -0.36673
 Alpha  occ. eigenvalues --   -0.35716  -0.31643  -0.30512  -0.29516
 Alpha virt. eigenvalues --    0.02053   0.05600   0.06044   0.07978   0.08947
 Alpha virt. eigenvalues --    0.10194   0.10479   0.11751   0.12521   0.13572
 Alpha virt. eigenvalues --    0.14574   0.15001   0.15460   0.16216   0.19162

 Mulliken atomic charges:
              1
     1  H    0.130558
     2  C   -0.391793
     3  C   -0.306485
     4  H    0.110378
     5  H    0.143223
     6  H    0.122844
     7  Si   0.532937
     8  H    0.123944
     9  O   -0.522539
    10  O   -0.342831
    11  H   -0.070437
    12  H    0.315319
    13  C   -0.204840
    14  H    0.127528
    15  H    0.116550
    16  H    0.115646
 Sum of Mulliken atomic charges =   0.00000

 Dipole moment (field-independent basis, Debye):
    X=             -0.6179    Y=             -0.5206    Z=             -1.0358  Tot=              1.3137
 Quadrupole moment (field-independent basis, Debye-Ang):
   XX=            -41.5337   YY=            -48.9827   ZZ=            -42.7824
   XY=             -2.0558   XZ=             -0.7056   YZ=             -2.1039

 Normal termination of Gaussian 09 at Wed Aug  8 20:09:05 2018.
