 Gaussian 09, Revision C.01,
 Gaussian 09:  EM64L-G09RevC.01 23-Sep-2011

 --------------------------------------
 #SP PBE1PBE/Def2TZVP geom=connectivity
 --------------------------------------

 99/5=1,9=1/99;
 -------------
 Structure: 96
 -------------
 Charge =  0 Multiplicity = 1

                         Standard orientation:
 ---------------------------------------------------------------------
 Center     Atomic      Atomic             Coordinates (Angstroms)
 Number     Number       Type             X           Y           Z
 ---------------------------------------------------------------------
      1          1           0       -3.318975   -1.060403   -0.509664
      2          6           0       -2.303323   -0.688209   -0.666416
      3          6           0       -1.683191   -0.181874    0.635177
      4          1           0       -2.368604    0.104272   -1.418099
      5          1           0       -1.714671   -1.503042   -1.095074
      6          1           0       -2.288419    0.628257    1.056827
      7         14           0        0.062507    0.439675    0.466533
      8          1           0       -1.676531   -0.979221    1.385952
      9          8           0        0.460367    1.692735   -0.527770
     10          8           0        0.952815   -0.855137   -0.011880
     11          1           0        0.610602    0.992228    1.731856
     12          1           0        0.196636    1.628613   -1.447505
     13          6           0        2.351206   -0.826169   -0.177159
     14          1           0        2.689044   -1.833192   -0.428084
     15          1           0        2.857048   -0.509299    0.742883
     16          1           0        2.645146   -0.146933   -0.982968
 ---------------------------------------------------------------------

 SCF Done:  E(RPBE1PBE) =  -560.058013793     A.U. after   12 cycles

 The electronic state is 1-A.
 Alpha  occ. eigenvalues --  -66.25310 -19.20308 -19.19503 -10.26095 -10.21933
 Alpha  occ. eigenvalues --  -10.21516  -5.32978  -3.66526  -3.66382  -3.66236
 Alpha  occ. eigenvalues --   -1.04280  -1.02012  -0.78585  -0.70190  -0.64352
 Alpha  occ. eigenvalues --   -0.56733  -0.50852  -0.46568  -0.46475  -0.46144
 Alpha  occ. eigenvalues --   -0.43573  -0.40864  -0.39315  -0.37122  -0.36704
 Alpha  occ. eigenvalues --   -0.35690  -0.31603  -0.30514  -0.29441
 Alpha virt. eigenvalues --    0.01951   0.05581   0.06027   0.07973   0.08941
 Alpha virt. eigenvalues --    0.10168   0.10379   0.11825   0.12571   0.13584
 Alpha virt. eigenvalues --    0.14536   0.14887   0.15504   0.16169   0.19130

 Mulliken atomic charges:
              1
     1  H    0.130639
     2  C   -0.391380
     3  C   -0.306628
     4  H    0.111535
     5  H    0.143476
     6  H    0.123293
     7  Si   0.531590
     8  H    0.125496
     9  O   -0.521124
    10  O   -0.343774
    11  H   -0.072157
    12  H    0.314181
    13  C   -0.202993
    14  H    0.127186
    15  H    0.116318
    16  H    0.114340
 Sum of Mulliken atomic charges =   0.00000

 Dipole moment (field-independent basis, Debye):
    X=             -0.7011    Y=             -0.5071    Z=             -1.0723  Tot=              1.3779
 Quadrupole moment (field-independent basis, Debye-Ang):
   XX=            -41.6144   YY=            -48.9252   ZZ=            -42.7700
   XY=             -2.1462   XZ=             -0.8434   YZ=             -2.1605

 Normal termination of Gaussian 09 at Wed Aug  8 20:35:45 2018.
