 Gaussian 09, Revision C.01,
 Gaussian 09:  EM64L-G09RevC.01 23-Sep-2011

 --------------------------------------
 #SP PBE1PBE/Def2TZVP geom=connectivity
 --------------------------------------

 99/5=1,9=1/99;
 -------------
 Structure: 91
 -------------
 Charge =  0 Multiplicity = 1

                         Standard orientation:
 ---------------------------------------------------------------------
 Center     Atomic      Atomic             Coordinates (Angstroms)
 Number     Number       Type             X           Y           Z
 ---------------------------------------------------------------------
      1          1           0       -3.304354   -1.082856   -0.508863
      2          6           0       -2.291942   -0.701656   -0.664930
      3          6           0       -1.673136   -0.199853    0.639048
      4          1           0       -2.364894    0.095661   -1.410770
      5          1           0       -1.697844   -1.508789   -1.100584
      6          1           0       -2.283788    0.602500    1.067694
      7         14           0        0.067337    0.436456    0.471449
      8          1           0       -1.658768   -1.002485    1.384061
      9          8           0        0.408132    1.702907   -0.527504
     10          8           0        0.966709   -0.847925   -0.018000
     11          1           0        0.613675    0.984173    1.739630
     12          1           0        0.127141    1.633700   -1.440821
     13          6           0        2.364496   -0.806891   -0.185811
     14          1           0        2.709640   -1.809430   -0.444626
     15          1           0        2.869717   -0.492697    0.735489
     16          1           0        2.651524   -0.119629   -0.987295
 ---------------------------------------------------------------------

 SCF Done:  E(RPBE1PBE) =  -560.059046820     A.U. after   12 cycles

 The electronic state is 1-A.
 Alpha  occ. eigenvalues --  -66.25320 -19.20303 -19.19593 -10.26157 -10.21899
 Alpha  occ. eigenvalues --  -10.21409  -5.32986  -3.66529  -3.66392  -3.66248
 Alpha  occ. eigenvalues --   -1.04304  -1.02082  -0.78523  -0.70247  -0.64302
 Alpha  occ. eigenvalues --   -0.56740  -0.50911  -0.46607  -0.46485  -0.46134
 Alpha  occ. eigenvalues --   -0.43575  -0.40874  -0.39281  -0.37147  -0.36679
 Alpha  occ. eigenvalues --   -0.35708  -0.31638  -0.30518  -0.29507
 Alpha virt. eigenvalues --    0.02038   0.05596   0.06042   0.07975   0.08948
 Alpha virt. eigenvalues --    0.10188   0.10457   0.11763   0.12529   0.13575
 Alpha virt. eigenvalues --    0.14580   0.14967   0.15463   0.16204   0.19154

 Mulliken atomic charges:
              1
     1  H    0.130582
     2  C   -0.391728
     3  C   -0.306466
     4  H    0.110618
     5  H    0.143275
     6  H    0.122954
     7  Si   0.532633
     8  H    0.124244
     9  O   -0.522333
    10  O   -0.342965
    11  H   -0.070694
    12  H    0.314946
    13  C   -0.204526
    14  H    0.127474
    15  H    0.116513
    16  H    0.115472
 Sum of Mulliken atomic charges =   0.00000

 Dipole moment (field-independent basis, Debye):
    X=             -0.6343    Y=             -0.5220    Z=             -1.0396  Tot=              1.3250
 Quadrupole moment (field-independent basis, Debye-Ang):
   XX=            -41.5448   YY=            -48.9799   ZZ=            -42.7837
   XY=             -2.0751   XZ=             -0.7289   YZ=             -2.1095

 Normal termination of Gaussian 09 at Wed Aug  8 20:14:22 2018.
