 Gaussian 09, Revision C.01,
 Gaussian 09:  EM64L-G09RevC.01 23-Sep-2011

 --------------------------------------
 #SP PBE1PBE/Def2TZVP geom=connectivity
 --------------------------------------

 99/5=1,9=1/99;
 -------------
 Structure: 98
 -------------
 Charge =  0 Multiplicity = 1

                         Standard orientation:
 ---------------------------------------------------------------------
 Center     Atomic      Atomic             Coordinates (Angstroms)
 Number     Number       Type             X           Y           Z
 ---------------------------------------------------------------------
      1          1           0       -3.324865   -1.051311   -0.509976
      2          6           0       -2.307925   -0.682770   -0.667011
      3          6           0       -1.687230   -0.174562    0.633584
      4          1           0       -2.370124    0.107701   -1.421068
      5          1           0       -1.721499   -1.500702   -1.092806
      6          1           0       -2.290242    0.638700    1.052372
      7         14           0        0.060545    0.441004    0.464507
      8          1           0       -1.683667   -0.969717    1.386701
      9          8           0        0.481662    1.688393   -0.527950
     10          8           0        0.947156   -0.857997   -0.009395
     11          1           0        0.609376    0.995548    1.728638
     12          1           0        0.224247    1.626587   -1.449079
     13          6           0        2.345761   -0.833905   -0.173645
     14          1           0        2.680630   -1.842717   -0.421344
     15          1           0        2.851872   -0.515924    0.745866
     16          1           0        2.642468   -0.157966   -0.981210
 ---------------------------------------------------------------------

 SCF Done:  E(RPBE1PBE) =  -560.057535774     A.U. after   12 cycles

 The electronic state is 1-A.
 Alpha  occ. eigenvalues --  -66.25313 -19.20298 -19.19469 -10.26069 -10.21948
 Alpha  occ. eigenvalues --  -10.21562  -5.32981  -3.66531  -3.66384  -3.66237
 Alpha  occ. eigenvalues --   -1.04273  -1.01990  -0.78613  -0.70168  -0.64374
 Alpha  occ. eigenvalues --   -0.56736  -0.50830  -0.46556  -0.46473  -0.46146
 Alpha  occ. eigenvalues --   -0.43573  -0.40864  -0.39326  -0.37114  -0.36715
 Alpha  occ. eigenvalues --   -0.35675  -0.31592  -0.30511  -0.29415
 Alpha virt. eigenvalues --    0.01918   0.05570   0.06022   0.07972   0.08942
 Alpha virt. eigenvalues --    0.10155   0.10347   0.11847   0.12586   0.13586
 Alpha virt. eigenvalues --    0.14473   0.14901   0.15523   0.16155   0.19119

 Mulliken atomic charges:
              1
     1  H    0.130664
     2  C   -0.391217
     3  C   -0.306700
     4  H    0.111896
     5  H    0.143572
     6  H    0.123449
     7  Si   0.531275
     8  H    0.126018
     9  O   -0.520666
    10  O   -0.344077
    11  H   -0.072716
    12  H    0.313649
    13  C   -0.202356
    14  H    0.127063
    15  H    0.116234
    16  H    0.113910
 Sum of Mulliken atomic charges =   0.00000

 Dipole moment (field-independent basis, Debye):
    X=             -0.7299    Y=             -0.5017    Z=             -1.0832  Tot=              1.3992
 Quadrupole moment (field-independent basis, Debye-Ang):
   XX=            -41.6395   YY=            -48.9031   ZZ=            -42.7691
   XY=             -2.1770   XZ=             -0.8873   YZ=             -2.1775

 Normal termination of Gaussian 09 at Wed Aug  8 20:44:20 2018.
