 Gaussian 09, Revision C.01,
 Gaussian 09:  EM64L-G09RevC.01 23-Sep-2011

 --------------------------------------
 #SP PBE1PBE/Def2TZVP geom=connectivity
 --------------------------------------

 99/5=1,9=1/99;
 -------------
 Structure: 97
 -------------
 Charge =  0 Multiplicity = 1

                         Standard orientation:
 ---------------------------------------------------------------------
 Center     Atomic      Atomic             Coordinates (Angstroms)
 Number     Number       Type             X           Y           Z
 ---------------------------------------------------------------------
      1          1           0       -3.321967   -1.055789   -0.509777
      2          6           0       -2.305662   -0.685450   -0.666691
      3          6           0       -1.685252   -0.178093    0.634373
      4          1           0       -2.369382    0.105974   -1.419620
      5          1           0       -1.718132   -1.501876   -1.093853
      6          1           0       -2.289363    0.633646    1.054528
      7         14           0        0.061499    0.440424    0.465480
      8          1           0       -1.680161   -0.974291    1.386378
      9          8           0        0.471201    1.690126   -0.527903
     10          8           0        0.949943   -0.856536   -0.010576
     11          1           0        0.609959    0.994056    1.730171
     12          1           0        0.210736    1.628188   -1.448588
     13          6           0        2.348445   -0.830042   -0.175333
     14          1           0        2.684784   -1.837986   -0.424568
     15          1           0        2.854418   -0.512557    0.744425
     16          1           0        2.643787   -0.152516   -0.982068
 ---------------------------------------------------------------------

 SCF Done:  E(RPBE1PBE) =  -560.057772865     A.U. after   12 cycles

 The electronic state is 1-A.
 Alpha  occ. eigenvalues --  -66.25307 -19.20305 -19.19481 -10.26080 -10.21939
 Alpha  occ. eigenvalues --  -10.21537  -5.32976  -3.66525  -3.66379  -3.66233
 Alpha  occ. eigenvalues --   -1.04276  -1.02000  -0.78597  -0.70177  -0.64361
 Alpha  occ. eigenvalues --   -0.56743  -0.50840  -0.46560  -0.46472  -0.46144
 Alpha  occ. eigenvalues --   -0.43571  -0.40862  -0.39319  -0.37119  -0.36709
 Alpha  occ. eigenvalues --   -0.35685  -0.31595  -0.30509  -0.29426
 Alpha virt. eigenvalues --    0.01935   0.05577   0.06024   0.07974   0.08941
 Alpha virt. eigenvalues --    0.10164   0.10364   0.11838   0.12580   0.13585
 Alpha virt. eigenvalues --    0.14507   0.14892   0.15515   0.16164   0.19126

 Mulliken atomic charges:
              1
     1  H    0.130646
     2  C   -0.391275
     3  C   -0.306704
     4  H    0.111698
     5  H    0.143523
     6  H    0.123354
     7  Si   0.531488
     8  H    0.125754
     9  O   -0.520872
    10  O   -0.343948
    11  H   -0.072475
    12  H    0.313988
    13  C   -0.202656
    14  H    0.127116
    15  H    0.116264
    16  H    0.114099
 Sum of Mulliken atomic charges =   0.00000

 Dipole moment (field-independent basis, Debye):
    X=             -0.7157    Y=             -0.5012    Z=             -1.0791  Tot=              1.3885
 Quadrupole moment (field-independent basis, Debye-Ang):
   XX=            -41.6298   YY=            -48.9060   ZZ=            -42.7680
   XY=             -2.1608   XZ=             -0.8660   YZ=             -2.1737

 Normal termination of Gaussian 09 at Wed Aug  8 20:40:08 2018.
