 Gaussian 09, Revision C.01,
 Gaussian 09:  EM64L-G09RevC.01 23-Sep-2011

 --------------------------------------
 #SP PBE1PBE/Def2TZVP geom=connectivity
 --------------------------------------

 99/5=1,9=1/99;
 -------------
 Structure: 94
 -------------
 Charge =  0 Multiplicity = 1

                         Standard orientation:
 ---------------------------------------------------------------------
 Center     Atomic      Atomic             Coordinates (Angstroms)
 Number     Number       Type             X           Y           Z
 ---------------------------------------------------------------------
      1          1           0       -3.313034   -1.069562   -0.509353
      2          6           0       -2.298691   -0.693698   -0.665825
      3          6           0       -1.679107   -0.189227    0.636754
      4          1           0       -2.367087    0.100777   -1.415122
      5          1           0       -1.707814   -1.505401   -1.097348
      6          1           0       -2.286552    0.617742    1.061269
      7         14           0        0.064479    0.438335    0.468538
      8          1           0       -1.669318   -0.988751    1.385176
      9          8           0        0.439012    1.696963   -0.527561
     10          8           0        0.958488   -0.852244   -0.014393
     11          1           0        0.611850    0.988900    1.735039
     12          1           0        0.168677    1.631608   -1.445114
     13          6           0        2.356646   -0.818366   -0.180708
     14          1           0        2.697462   -1.823574   -0.434863
     15          1           0        2.862230   -0.502600    0.739855
     16          1           0        2.647783   -0.135839   -0.984753
 ---------------------------------------------------------------------

 SCF Done:  E(RPBE1PBE) =  -560.058460812     A.U. after   12 cycles

 The electronic state is 1-A.
 Alpha  occ. eigenvalues --  -66.25311 -19.20308 -19.19538 -10.26119 -10.21917
 Alpha  occ. eigenvalues --  -10.21470  -5.32979  -3.66525  -3.66383  -3.66238
 Alpha  occ. eigenvalues --   -1.04288  -1.02040  -0.78558  -0.70213  -0.64330
 Alpha  occ. eigenvalues --   -0.56741  -0.50876  -0.46582  -0.46477  -0.46140
 Alpha  occ. eigenvalues --   -0.43572  -0.40866  -0.39299  -0.37132  -0.36693
 Alpha  occ. eigenvalues --   -0.35700  -0.31616  -0.30515  -0.29467
 Alpha virt. eigenvalues --    0.01988   0.05589   0.06033   0.07974   0.08943
 Alpha virt. eigenvalues --    0.10178   0.10412   0.11802   0.12555   0.13581
 Alpha virt. eigenvalues --    0.14578   0.14896   0.15487   0.16184   0.19141

 Mulliken atomic charges:
              1
     1  H    0.130610
     2  C   -0.391510
     3  C   -0.306573
     4  H    0.111160
     5  H    0.143383
     6  H    0.123139
     7  Si   0.532076
     8  H    0.124977
     9  O   -0.521653
    10  O   -0.343455
    11  H   -0.071590
    12  H    0.314570
    13  C   -0.203621
    14  H    0.127304
    15  H    0.116397
    16  H    0.114785
 Sum of Mulliken atomic charges =   0.00000

 Dipole moment (field-independent basis, Debye):
    X=             -0.6730    Y=             -0.5114    Z=             -1.0605  Tot=              1.3561
 Quadrupole moment (field-independent basis, Debye-Ang):
   XX=            -41.5881   YY=            -48.9425   ZZ=            -42.7735
   XY=             -2.1162   XZ=             -0.7982   YZ=             -2.1448

 Normal termination of Gaussian 09 at Wed Aug  8 20:27:15 2018.
