 Gaussian 09, Revision C.01,
 Gaussian 09:  EM64L-G09RevC.01 23-Sep-2011

 --------------------------------------
 #SP PBE1PBE/Def2TZVP geom=connectivity
 --------------------------------------

 99/5=1,9=1/99;
 ------------
 Structure: 9
 ------------
 Charge =  0 Multiplicity = 1

                         Standard orientation:
 ---------------------------------------------------------------------
 Center     Atomic      Atomic             Coordinates (Angstroms)
 Number     Number       Type             X           Y           Z
 ---------------------------------------------------------------------
      1          1           0       -3.045838   -1.451111   -0.346519
      2          6           0       -2.094470   -0.953485   -0.551256
      3          6           0       -1.489297   -0.354096    0.717438
      4          1           0       -2.293927   -0.186180   -1.305428
      5          1           0       -1.424592   -1.691507   -0.999358
      6          1           0       -2.175293    0.377037    1.159316
      7         14           0        0.152606    0.484556    0.466358
      8          1           0       -1.347327   -1.133780    1.473353
      9          8           0       -0.458104    1.570444   -0.613023
     10          8           0        1.181161   -0.691274   -0.041154
     11          1           0        0.678879    1.120016    1.701667
     12          1           0       -0.933655    1.223920   -1.369471
     13          6           0        2.555653   -0.484861   -0.268789
     14          1           0        3.009543   -1.443336   -0.526671
     15          1           0        3.055592   -0.093188    0.625310
     16          1           0        2.724359    0.215637   -1.092155
 ---------------------------------------------------------------------

 SCF Done:  E(RPBE1PBE) =  -560.044200648     A.U. after   13 cycles

 The electronic state is 1-A.
 Alpha  occ. eigenvalues --  -66.25770 -19.21062 -19.19442 -10.27148 -10.21440
 Alpha  occ. eigenvalues --  -10.19344  -5.33416  -3.66937  -3.66869  -3.66650
 Alpha  occ. eigenvalues --   -1.05016  -1.02182  -0.77416  -0.71208  -0.63551
 Alpha  occ. eigenvalues --   -0.56350  -0.51780  -0.47529  -0.47174  -0.45801
 Alpha  occ. eigenvalues --   -0.43495  -0.41423  -0.38277  -0.37100  -0.36370
 Alpha  occ. eigenvalues --   -0.34950  -0.32615  -0.30950  -0.28066
 Alpha virt. eigenvalues --    0.01935   0.04847   0.05729   0.07827   0.09042
 Alpha virt. eigenvalues --    0.09348   0.11044   0.11693   0.11907   0.12986
 Alpha virt. eigenvalues --    0.13660   0.15082   0.16760   0.18233   0.20265

 Mulliken atomic charges:
              1
     1  H    0.129086
     2  C   -0.392949
     3  C   -0.307229
     4  H    0.086042
     5  H    0.142489
     6  H    0.116373
     7  Si   0.551586
     8  H    0.098496
     9  O   -0.521741
    10  O   -0.331190
    11  H   -0.041308
    12  H    0.316305
    13  C   -0.223065
    14  H    0.132044
    15  H    0.120149
    16  H    0.124911
 Sum of Mulliken atomic charges =   0.00000

 Dipole moment (field-independent basis, Debye):
    X=              0.7275    Y=             -0.5675    Z=             -0.5347  Tot=              1.0664
 Quadrupole moment (field-independent basis, Debye-Ang):
   XX=            -40.2671   YY=            -49.6962   ZZ=            -43.4382
   XY=              0.0144   XZ=              0.7127   YZ=              0.0184

 Normal termination of Gaussian 09 at Wed Aug  8 20:54:29 2018.
