 Gaussian 09, Revision C.01,
 Gaussian 09:  EM64L-G09RevC.01 23-Sep-2011

 --------------------------------------
 #SP PBE1PBE/Def2TZVP geom=connectivity
 --------------------------------------

 99/5=1,9=1/99;
 -------------
 Structure: 92
 -------------
 Charge =  0 Multiplicity = 1

                         Standard orientation:
 ---------------------------------------------------------------------
 Center     Atomic      Atomic             Coordinates (Angstroms)
 Number     Number       Type             X           Y           Z
 ---------------------------------------------------------------------
      1          1           0       -3.307302   -1.078306   -0.509160
      2          6           0       -2.294230   -0.698895   -0.665308
      3          6           0       -1.675154   -0.196406    0.638277
      4          1           0       -2.365633    0.097586   -1.412191
      5          1           0       -1.701229   -1.507514   -1.099699
      6          1           0       -2.284713    0.607450    1.065659
      7         14           0        0.066384    0.436954    0.470562
      8          1           0       -1.662342   -0.998111    1.384315
      9          8           0        0.418662    1.701372   -0.527380
     10          8           0        0.963930   -0.849460   -0.016895
     11          1           0        0.613079    0.985425    1.738263
     12          1           0        0.140267    1.633182   -1.442299
     13          6           0        2.361847   -0.810835   -0.184201
     14          1           0        2.705517   -1.814244   -0.441604
     15          1           0        2.867196   -0.496264    0.736900
     16          1           0        2.650272   -0.125046   -0.986444
 ---------------------------------------------------------------------

 SCF Done:  E(RPBE1PBE) =  -560.058857145     A.U. after   12 cycles

 The electronic state is 1-A.
 Alpha  occ. eigenvalues --  -66.25321 -19.20309 -19.19577 -10.26145 -10.21906
 Alpha  occ. eigenvalues --  -10.21432  -5.32987  -3.66531  -3.66392  -3.66248
 Alpha  occ. eigenvalues --   -1.04294  -1.02059  -0.78537  -0.70236  -0.64313
 Alpha  occ. eigenvalues --   -0.56725  -0.50896  -0.46598  -0.46483  -0.46138
 Alpha  occ. eigenvalues --   -0.43575  -0.40873  -0.39286  -0.37142  -0.36683
 Alpha  occ. eigenvalues --   -0.35701  -0.31631  -0.30520  -0.29495
 Alpha virt. eigenvalues --    0.02016   0.05592   0.06038   0.07974   0.08945
 Alpha virt. eigenvalues --    0.10183   0.10440   0.11774   0.12536   0.13575
 Alpha virt. eigenvalues --    0.14584   0.14935   0.15470   0.16196   0.19149

 Mulliken atomic charges:
              1
     1  H    0.130599
     2  C   -0.391654
     3  C   -0.306479
     4  H    0.110797
     5  H    0.143321
     6  H    0.123035
     7  Si   0.532373
     8  H    0.124504
     9  O   -0.522262
    10  O   -0.343104
    11  H   -0.070959
    12  H    0.314879
    13  C   -0.204223
    14  H    0.127416
    15  H    0.116474
    16  H    0.115283
 Sum of Mulliken atomic charges =   0.00000

 Dipole moment (field-independent basis, Debye):
    X=             -0.6490    Y=             -0.5203    Z=             -1.0457  Tot=              1.3362
 Quadrupole moment (field-independent basis, Debye-Ang):
   XX=            -41.5586   YY=            -48.9718   ZZ=            -42.7811
   XY=             -2.0919   XZ=             -0.7499   YZ=             -2.1201

 Normal termination of Gaussian 09 at Wed Aug  8 20:18:46 2018.
