 Gaussian 09, Revision C.01,
 Gaussian 09:  EM64L-G09RevC.01 23-Sep-2011

 --------------------------------------
 #SP PBE1PBE/Def2TZVP geom=connectivity
 --------------------------------------

 99/5=1,9=1/99;
 -------------
 Structure: 95
 -------------
 Charge =  0 Multiplicity = 1

                         Standard orientation:
 ---------------------------------------------------------------------
 Center     Atomic      Atomic             Coordinates (Angstroms)
 Number     Number       Type             X           Y           Z
 ---------------------------------------------------------------------
      1          1           0       -3.316031   -1.064987   -0.509359
      2          6           0       -2.301030   -0.690986   -0.666031
      3          6           0       -1.681170   -0.185384    0.635977
      4          1           0       -2.367866    0.102379   -1.416643
      5          1           0       -1.711268   -1.504324   -1.095998
      6          1           0       -2.287504    0.623235    1.058937
      7         14           0        0.063477    0.439140    0.467447
      8          1           0       -1.672948   -0.983707    1.385699
      9          8           0        0.449862    1.694387   -0.527864
     10          8           0        0.955632   -0.853636   -0.013029
     11          1           0        0.611212    0.990892    1.733274
     12          1           0        0.182214    1.629910   -1.446030
     13          6           0        2.353909   -0.822244   -0.178834
     14          1           0        2.693233   -1.828402   -0.431220
     15          1           0        2.859623   -0.505786    0.741420
     16          1           0        2.646450   -0.141486   -0.983868
 ---------------------------------------------------------------------

 SCF Done:  E(RPBE1PBE) =  -560.058232947     A.U. after   12 cycles

 The electronic state is 1-A.
 Alpha  occ. eigenvalues --  -66.25306 -19.20308 -19.19517 -10.26105 -10.21925
 Alpha  occ. eigenvalues --  -10.21493  -5.32975  -3.66522  -3.66379  -3.66234
 Alpha  occ. eigenvalues --   -1.04289  -1.02034  -0.78572  -0.70200  -0.64341
 Alpha  occ. eigenvalues --   -0.56747  -0.50865  -0.46573  -0.46475  -0.46143
 Alpha  occ. eigenvalues --   -0.43572  -0.40865  -0.39313  -0.37128  -0.36699
 Alpha  occ. eigenvalues --   -0.35699  -0.31608  -0.30513  -0.29453
 Alpha virt. eigenvalues --    0.01971   0.05587   0.06032   0.07974   0.08944
 Alpha virt. eigenvalues --    0.10174   0.10395   0.11815   0.12563   0.13583
 Alpha virt. eigenvalues --    0.14563   0.14890   0.15496   0.16177   0.19136

 Mulliken atomic charges:
              1
     1  H    0.130627
     2  C   -0.391433
     3  C   -0.306653
     4  H    0.111329
     5  H    0.143440
     6  H    0.123211
     7  Si   0.531737
     8  H    0.125244
     9  O   -0.521124
    10  O   -0.343635
    11  H   -0.071923
    12  H    0.314329
    13  C   -0.203294
    14  H    0.127238
    15  H    0.116346
    16  H    0.114562
 Sum of Mulliken atomic charges =   0.00000

 Dipole moment (field-independent basis, Debye):
    X=             -0.6884    Y=             -0.5074    Z=             -1.0666  Tot=              1.3672
 Quadrupole moment (field-independent basis, Debye-Ang):
   XX=            -41.6024   YY=            -48.9288   ZZ=            -42.7735
   XY=             -2.1322   XZ=             -0.8191   YZ=             -2.1528

 Normal termination of Gaussian 09 at Wed Aug  8 20:31:32 2018.
