 Gaussian 09, Revision C.01,
 Gaussian 09:  EM64L-G09RevC.01 23-Sep-2011

 --------------------------------------
 #SP PBE1PBE/Def2TZVP geom=connectivity
 --------------------------------------

 99/5=1,9=1/99;
 -------------
 Structure: 93
 -------------
 Charge =  0 Multiplicity = 1

                         Standard orientation:
 ---------------------------------------------------------------------
 Center     Atomic      Atomic             Coordinates (Angstroms)
 Number     Number       Type             X           Y           Z
 ---------------------------------------------------------------------
      1          1           0       -3.310350   -1.073641   -0.509237
      2          6           0       -2.296603   -0.696113   -0.665562
      3          6           0       -1.677261   -0.192551    0.637483
      4          1           0       -2.366409    0.099294   -1.413739
      5          1           0       -1.704726   -1.506376   -1.098418
      6          1           0       -2.285701    0.612965    1.063332
      7         14           0        0.065366    0.437733    0.469494
      8          1           0       -1.666054   -0.993089    1.384800
      9          8           0        0.429564    1.698845   -0.527640
     10          8           0        0.961039   -0.850901   -0.015542
     11          1           0        0.612416    0.987336    1.736551
     12          1           0        0.154784    1.631945   -1.443317
     13          6           0        2.359086   -0.814796   -0.182322
     14          1           0        2.701244   -1.819165   -0.437985
     15          1           0        2.864557   -0.499576    0.738491
     16          1           0        2.648952   -0.130748   -0.985532
 ---------------------------------------------------------------------

 SCF Done:  E(RPBE1PBE) =  -560.058646678     A.U. after   12 cycles

 The electronic state is 1-A.
 Alpha  occ. eigenvalues --  -66.25315 -19.20306 -19.19555 -10.26130 -10.21913
 Alpha  occ. eigenvalues --  -10.21454  -5.32982  -3.66527  -3.66387  -3.66242
 Alpha  occ. eigenvalues --   -1.04295  -1.02057  -0.78549  -0.70223  -0.64323
 Alpha  occ. eigenvalues --   -0.56738  -0.50886  -0.46589  -0.46480  -0.46141
 Alpha  occ. eigenvalues --   -0.43574  -0.40871  -0.39298  -0.37138  -0.36689
 Alpha  occ. eigenvalues --   -0.35702  -0.31623  -0.30518  -0.29480
 Alpha virt. eigenvalues --    0.02003   0.05591   0.06037   0.07974   0.08946
 Alpha virt. eigenvalues --    0.10181   0.10424   0.11789   0.12546   0.13579
 Alpha virt. eigenvalues --    0.14586   0.14914   0.15478   0.16189   0.19144

 Mulliken atomic charges:
              1
     1  H    0.130610
     2  C   -0.391577
     3  C   -0.306552
     4  H    0.110984
     5  H    0.143365
     6  H    0.123095
     7  Si   0.532111
     8  H    0.124764
     9  O   -0.521742
    10  O   -0.343295
    11  H   -0.071304
    12  H    0.314625
    13  C   -0.203901
    14  H    0.127353
    15  H    0.116425
    16  H    0.115037
 Sum of Mulliken atomic charges =   0.00000

 Dipole moment (field-independent basis, Debye):
    X=             -0.6631    Y=             -0.5156    Z=             -1.0526  Tot=              1.3467
 Quadrupole moment (field-independent basis, Debye-Ang):
   XX=            -41.5738   YY=            -48.9557   ZZ=            -42.7795
   XY=             -2.1062   XZ=             -0.7735   YZ=             -2.1306

 Normal termination of Gaussian 09 at Wed Aug  8 20:22:53 2018.
