 Gaussian 09, Revision C.01,
 Gaussian 09:  EM64L-G09RevC.01 23-Sep-2011

 --------------------------------------
 #SP PBE1PBE/Def2TZVP geom=connectivity
 --------------------------------------

 99/5=1,9=1/99;
 -------------
 Structure: 99
 -------------
 Charge =  0 Multiplicity = 1

                         Standard orientation:
 ---------------------------------------------------------------------
 Center     Atomic      Atomic             Coordinates (Angstroms)
 Number     Number       Type             X           Y           Z
 ---------------------------------------------------------------------
      1          1           0       -3.327842   -1.046724   -0.510036
      2          6           0       -2.310257   -0.680044   -0.667252
      3          6           0       -1.689282   -0.170727    0.632775
      4          1           0       -2.370903    0.109310   -1.422604
      5          1           0       -1.724955   -1.499587   -1.091494
      6          1           0       -2.291176    0.644160    1.050012
      7         14           0        0.059531    0.441804    0.463416
      8          1           0       -1.687279   -0.964674    1.387171
      9          8           0        0.492466    1.685716   -0.528175
     10          8           0        0.944278   -0.859358   -0.008038
     11          1           0        0.608731    0.997512    1.726875
     12          1           0        0.238690    1.625092   -1.450070
     13          6           0        2.342985   -0.837741   -0.171760
     14          1           0        2.676358   -1.847478   -0.417701
     15          1           0        2.849228   -0.519081    0.747443
     16          1           0        2.641085   -0.163571   -0.980291
 ---------------------------------------------------------------------

 SCF Done:  E(RPBE1PBE) =  -560.057277168     A.U. after   12 cycles

 The electronic state is 1-A.
 Alpha  occ. eigenvalues --  -66.25312 -19.20293 -19.19449 -10.26056 -10.21955
 Alpha  occ. eigenvalues --  -10.21584  -5.32980  -3.66531  -3.66382  -3.66235
 Alpha  occ. eigenvalues --   -1.04272  -1.01980  -0.78626  -0.70155  -0.64384
 Alpha  occ. eigenvalues --   -0.56743  -0.50819  -0.46551  -0.46471  -0.46145
 Alpha  occ. eigenvalues --   -0.43572  -0.40863  -0.39332  -0.37110  -0.36721
 Alpha  occ. eigenvalues --   -0.35669  -0.31586  -0.30506  -0.29400
 Alpha virt. eigenvalues --    0.01902   0.05565   0.06019   0.07973   0.08942
 Alpha virt. eigenvalues --    0.10148   0.10332   0.11859   0.12595   0.13587
 Alpha virt. eigenvalues --    0.14439   0.14913   0.15534   0.16149   0.19114

 Mulliken atomic charges:
              1
     1  H    0.130674
     2  C   -0.391138
     3  C   -0.306756
     4  H    0.112075
     5  H    0.143619
     6  H    0.123518
     7  Si   0.531139
     8  H    0.126276
     9  O   -0.520353
    10  O   -0.344251
    11  H   -0.073019
    12  H    0.313393
    13  C   -0.202023
    14  H    0.126997
    15  H    0.116188
    16  H    0.113662
 Sum of Mulliken atomic charges =   0.00000

 Dipole moment (field-independent basis, Debye):
    X=             -0.7439    Y=             -0.4976    Z=             -1.0893  Tot=              1.4098
 Quadrupole moment (field-independent basis, Debye-Ang):
   XX=            -41.6532   YY=            -48.8894   ZZ=            -42.7677
   XY=             -2.1909   XZ=             -0.9106   YZ=             -2.1864

 Normal termination of Gaussian 09 at Wed Aug  8 20:49:07 2018.
